ITEM: TIMESTEP
0
ITEM: NUMBER OF ATOMS
12
ITEM: BOX BOUNDS xy xz yz pp pp pp
0.0000000000000000e+00 1.1113819869529157e+01 5.6691783835513254e-01
0.0000000000000000e+00 1.0735874643959070e+01 1.8897261278504421e-01
0.0000000000000000e+00 1.0357929418388981e+01 3.7794522557008842e-01
ITEM: ATOMS id type element x y z
1 1 Ca 6.66829 6.44152 6.21476
2 1 Ca 6.29035 1.07359 1.03579
3 1 Ca 1.39484 6.25255 1.03579
4 1 Ca 1.20587 1.26256 6.21476
5 2 F 3.88984 3.75756 3.62528
6 2 F 9.44675 9.12549 8.80424
7 2 F 9.35226 8.93652 3.62528
8 2 F 3.98432 3.94653 8.80424
9 2 F 9.16329 3.94653 8.80424
10 2 F 4.1733 8.93652 3.62528
11 2 F 4.26778 9.12549 8.80424
12 2 F 9.0688 3.75756 3.62528
ITEM: TIMESTEP
1
ITEM: NUMBER OF ATOMS
12
ITEM: BOX BOUNDS xy xz yz pp pp pp
2.8648894385696622e-06 1.1113793977731701e+01 5.6689879717468605e-01
3.5523708241669283e-06 1.0735858983930427e+01 1.8896862705747344e-01
2.9711839442114751e-06 1.0357926447205035e+01 3.7793311791227097e-01
ITEM: ATOMS id type element x y z
1 1 Ca 6.66284 6.44533 6.22105
2 1 Ca 6.28549 1.06549 1.03153
3 1 Ca 1.40016 6.25255 1.03959
4 1 Ca 1.20873 1.26054 6.2103
5 2 F 3.88593 3.76228 3.63444
6 2 F 9.4392 9.12217 8.79631
7 2 F 9.34899 8.9287 3.63311
8 2 F 3.97727 3.95485 8.79925
9 2 F 9.1699 3.95452 8.80263
10 2 F 4.1769 8.93592 3.61839
11 2 F 4.27468 9.12273 8.81224
12 2 F 9.07781 3.76426 3.61882
ITEM: TIMESTEP
2
ITEM: NUMBER OF ATOMS
12
ITEM: BOX BOUNDS xy xz yz pp pp pp
1.1894581821714212e-05 1.1113715658165802e+01 5.6684239802502667e-01
1.4664889840254602e-05 1.0735811568901365e+01 1.8895573633361393e-01
1.2341609959776179e-05 1.0357917076779017e+01 3.7789681540222325e-01
ITEM: ATOMS id type element x y z
1 1 Ca 6.65737 6.44912 6.22732
2 1 Ca 6.28064 1.0574 1.02727
3 1 Ca 1.40544 6.25254 1.04339
4 1 Ca 1.21156 1.25852 6.20584
5 2 F 3.88206 3.76693 3.64361
6 2 F 9.43163 9.11889 8.78838
7 2 F 9.3457 8.92088 3.64095
8 2 F 3.97022 3.96314 8.79425
9 2 F 9.17646 3.96242 8.80105
10 2 F 4.18044 8.93535 3.61151
11 2 F 4.28152 9.11994 8.82024
12 2 F 9.08675 3.77094 3.61234
ITEM: TIMESTEP
3
ITEM: NUMBER OF ATOMS
12
ITEM: BOX BOUNDS xy xz yz pp pp pp
2.7422709690583247e-05 1.1113584340314528e+01 5.6674935357916312e-01
3.3710560190414185e-05 1.0735732092671007e+01 1.8893299105607211e-01
2.8435118914593716e-05 1.0357900983270062e+01 3.7783638484221554e-01
ITEM: ATOMS id type element x y z
1 1 Ca 6.65192 6.45286 6.23358
2 1 Ca 6.2758 1.04935 1.02303
3 1 Ca 1.41066 6.25252 1.04719
4 1 Ca 1.21437 1.25653 6.20138
5 2 F 3.87824 3.77149 3.65275
6 2 F 9.42407 9.11568 8.78049
7 2 F 9.34241 8.91311 3.64874
8 2 F 3.96321 3.97135 8.78929
9 2 F 9.18294 3.97019 8.7995
10 2 F 4.1839 8.93483 3.60465
11 2 F 4.28827 9.11718 8.82821
12 2 F 9.09559 3.77755 3.60586
ITEM: TIMESTEP
4
ITEM: NUMBER OF ATOMS
12
ITEM: BOX BOUNDS xy xz yz pp pp pp
4.9681451102401297e-05 1.1113399533418617e+01 5.6662036621940348e-01
6.0979227400892455e-05 1.0735620378670339e+01 1.8889943026133077e-01
5.1443123086691855e-05 1.0357877975265890e+01 3.7775193950875635e-01
ITEM: ATOMS id type element x y z
1 1 Ca 6.6465 6.45656 6.23981
2 1 Ca 6.271 1.04135 1.01879
3 1 Ca 1.41581 6.25249 1.05098
4 1 Ca 1.21714 1.25456 6.19694
5 2 F 3.87452 3.77592 3.66183
6 2 F 9.41655 9.11257 8.77266
7 2 F 9.33914 8.90544 3.65646
8 2 F 3.95627 3.97945 8.78439
9 2 F 9.1893 3.97776 8.79798
10 2 F 4.18727 8.9344 3.59783
11 2 F 4.29491 9.11447 8.83613
12 2 F 9.10431 3.78405 3.59939
ITEM: TIMESTEP
5
ITEM: NUMBER OF ATOMS
12
ITEM: BOX BOUNDS xy xz yz pp pp pp
7.8803061355436910e-05 1.1113160831288891e+01 5.6645612961343261e-01
9.6677839255043807e-05 1.0735476379321486e+01 1.8885408634782855e-01
8.1427331310557349e-05 1.0357847991057664e+01 3.7764363877175811e-01
ITEM: ATOMS id type element x y z
1 1 Ca 6.64113 6.4602 6.246
2 1 Ca 6.26624 1.03341 1.01458
3 1 Ca 1.42088 6.25243 1.05477
4 1 Ca 1.21985 1.25265 6.19251
5 2 F 3.87091 3.78019 3.67081
6 2 F 9.4091 9.10961 8.76494
7 2 F 9.33589 8.89792 3.66406
8 2 F 3.94944 3.98738 8.77958
9 2 F 9.19551 3.98511 8.79648
10 2 F 4.19053 8.93406 3.5911
11 2 F 4.30139 9.11185 8.84397
12 2 F 9.11286 3.79039 3.59294
ITEM: TIMESTEP
6
ITEM: NUMBER OF ATOMS
12
ITEM: BOX BOUNDS xy xz yz pp pp pp
1.1482291440767511e-04 1.1112867915760663e+01 5.6625733030687164e-01
1.4093167773765458e-04 1.0735300173900626e+01 1.8879598997921643e-01
1.1832448734949708e-04 1.0357811093901624e+01 3.7751168718937950e-01
ITEM: ATOMS id type element x y z
1 1 Ca 6.63584 6.46377 6.25215
2 1 Ca 6.26154 1.02554 1.01038
3 1 Ca 1.42583 6.25235 1.05855
4 1 Ca 1.22249 1.25079 6.1881
5 2 F 3.86746 3.78427 3.67966
6 2 F 9.40176 9.10681 8.75736
7 2 F 9.33269 8.89058 3.67151
8 2 F 3.94275 3.99512 8.7749
9 2 F 9.20153 3.99219 8.79501
10 2 F 4.19365 8.93383 3.58446
11 2 F 4.3077 9.10935 8.8517
12 2 F 9.12122 3.79652 3.58653
ITEM: TIMESTEP
7
ITEM: NUMBER OF ATOMS
12
ITEM: BOX BOUNDS xy xz yz pp pp pp
1.5768394390480722e-04 1.1112520558742091e+01 5.6602464919909878e-01
1.9378651035495409e-04 1.0735091964954156e+01 1.8872417509791412e-01
1.6195298239374267e-04 1.0357767465406580e+01 3.7735633307552685e-01
ITEM: ATOMS id type element x y z
1 1 Ca 6.63063 6.46726 6.25824
2 1 Ca 6.2569 1.01775 1.00621
3 1 Ca 1.43067 6.25225 1.06232
4 1 Ca 1.22505 1.249 6.18371
5 2 F 3.86418 3.78814 3.68836
6 2 F 9.39454 9.10422 8.74995
7 2 F 9.32953 8.88347 3.67878
8 2 F 3.93623 4.00261 8.77038
9 2 F 9.20733 3.99897 8.79356
10 2 F 4.19663 8.93373 3.57795
11 2 F 4.31379 9.10701 8.85931
12 2 F 9.12936 3.8024 3.58016
ITEM: TIMESTEP
8
ITEM: NUMBER OF ATOMS
12
ITEM: BOX BOUNDS xy xz yz pp pp pp
2.0724235162017379e-04 1.1112118622837796e+01 5.6575876277798842e-01
2.5521159876351618e-04 1.0734852073336331e+01 1.8863768402244427e-01
2.1202117401131204e-04 1.0357717397214962e+01 3.7717786654611180e-01
ITEM: ATOMS id type element x y z
1 1 Ca 6.62554 6.47067 6.26426
2 1 Ca 6.25234 1.01007 1.00206
3 1 Ca 1.43537 6.25211 1.06607
4 1 Ca 1.22751 1.2473 6.17934
5 2 F 3.8611 3.79177 3.69687
6 2 F 9.38748 9.10186 8.74274
7 2 F 9.32645 8.87662 3.68582
8 2 F 3.92992 4.00983 8.76605
9 2 F 9.21288 4.00539 8.79213
10 2 F 4.19945 8.93378 3.5716
11 2 F 4.31965 9.10485 8.86676
12 2 F 9.13725 3.808 3.57385
ITEM: TIMESTEP
9
ITEM: NUMBER OF ATOMS
12
ITEM: BOX BOUNDS xy xz yz pp pp pp
2.6327443221685343e-04 1.1111662060558366e+01 5.6546034400166134e-01
3.2510349460324051e-04 1.0734580931953944e+01 1.8853557259993942e-01
2.6813721888174769e-04 1.0357661281170092e+01 3.7697661705956542e-01
ITEM: ATOMS id type element x y z
1 1 Ca 6.62056 6.47398 6.27021
2 1 Ca 6.24788 1.0025 0.99794
3 1 Ca 1.43991 6.25195 1.0698
4 1 Ca 1.22986 1.2457 6.175
5 2 F 3.85826 3.79514 3.70517
6 2 F 9.3806 9.09976 8.73577
7 2 F 9.32344 8.87009 3.69261
8 2 F 3.92383 4.01674 8.76193
9 2 F 9.21815 4.01144 8.79073
10 2 F 4.20208 8.934 3.56543
11 2 F 4.32523 9.10291 8.87403
12 2 F 9.14487 3.81326 3.56762
ITEM: TIMESTEP
10
ITEM: NUMBER OF ATOMS
12
ITEM: BOX BOUNDS xy xz yz pp pp pp
3.2548434788637337e-04 1.1111150912154621e+01 5.6513006273073718e-01
4.0329054564391953e-04 1.0734279078319783e+01 1.8841691538278593e-01
3.2982020565075487e-04 1.0357599598183324e+01 3.7675295047644408e-01
ITEM: ATOMS id type element x y z
1 1 Ca 6.61573 6.47718 6.27608
2 1 Ca 6.24353 0.995049 0.993849
3 1 Ca 1.44429 6.25174 1.07352
4 1 Ca 1.2321 1.24421 6.1707
5 2 F 3.85567 3.79824 3.71323
6 2 F 9.37393 9.09795 8.72906
7 2 F 9.32052 8.8639 3.69912
8 2 F 3.91799 4.02331 8.75806
9 2 F 9.22312 4.01708 8.78935
10 2 F 4.20452 8.93438 3.55947
11 2 F 4.33052 9.1012 8.88109
12 2 F 9.15219 3.81816 3.56147
