96 
2 
 
1 
    0.019999999987830     0.000000691767305     0.000000090913223
   -0.030798791943477    -0.000012888841722    -0.000000802127064
    0.001198177584646    -0.000011789994903    -0.000000903914626
   -0.000521904332723    -0.000011804880520    -0.000000901755165
   -0.000052926108558    -0.000011806719229    -0.000000905162298
   -0.000521928081295    -0.000011802447876    -0.000000898575134
   -0.000052942795304    -0.000011797842932    -0.000000901265446
   -0.000033764357685    -0.000011797809942    -0.000000905242137
    0.000014689860867    -0.000011796470122    -0.000000905161666
   -0.002116647119474    -0.000012061154774    -0.000026832741125
    0.000026687257573    -0.000017490107747    -0.000021388508535
   -0.002116716183699    -0.000023658935046    -0.000026857233950
    0.000026687165050    -0.000018192238495    -0.000021388538797
   -0.002116765291113    -0.000012044299725    -0.000015229130515
    0.000026686960048    -0.000017489342906    -0.000020690619352
   -0.002116687566514    -0.000023673268492    -0.000015206307975
    0.000026685143623    -0.000018192681097    -0.000020691152940
    0.001683809108965    -0.000001246000747     0.001844325683596
    0.001681795970099    -0.000001189832527    -0.001807502649328
    0.000073159057236    -0.000001219666960     0.000135716300384
    0.000072631929698    -0.000001217558513    -0.000124516606931
    0.001683803408275    -0.000001204339962    -0.001832809646427
    0.001681788591475    -0.000001233509830     0.001818992695128
    0.000073158597889    -0.000001218089634    -0.000124189101207
    0.000072632020795    -0.000001218928111     0.000136041478565
    0.001654474862310    -0.001855865226334     0.000000383491601
    0.001652459396609     0.001795930935524     0.000000383553730
    0.001654467879144     0.001821223606271     0.000000384478999
    0.001652453654595    -0.001830566273222     0.000000384557308
    0.000043850329310    -0.000147284380908     0.000000387581371
    0.000043316210654     0.000112943900134     0.000000387740807
    0.000043846814048     0.000112616376205     0.000000389637654
    0.000043319024376    -0.000147616781172     0.000000385213357
   -0.000108130177887     0.000118769908274     0.000114494462025
    0.000103891744968     0.000294313012843    -0.000080775756003
    0.003632873309273     0.001836212295818     0.001820235976120
   -0.000363151283323     0.000200078493762     0.000184068807082
    0.000069987484406     0.000039401143707     0.000023376671909
   -0.000033059230243    -0.000022603966155    -0.000038624905127
   -0.000108143643158     0.000130517779950     0.000102785392710
    0.000103897891056    -0.000064757856958     0.000278297233013
    0.000097546786032    -0.000075840872606     0.000275115786995
   -0.000118222302443     0.000119895554397     0.000089970813404
   -0.000044433619645    -0.000030671056620    -0.000048600012097
    0.000057117712004     0.000030921492757     0.000012991072732
   -0.000404029171354     0.000206058487100     0.000188132758783
    0.003440511853818     0.001631309313242     0.001613400633509
    0.000097549016877     0.000293043311361    -0.000093764603338
   -0.000118217912003     0.000107880769735     0.000101969756231
   -0.000385892259369     0.000207325314403    -0.000184389497224
    0.003458268845962     0.001632304197475    -0.001609320255227
    0.000115651136946     0.000294329641639     0.000097500366854
   -0.000100126699767     0.000109188329889    -0.000098232997280
    0.000115649596195    -0.000074561620734    -0.000271391992197
   -0.000100127105765     0.000121170608592    -0.000086254863971
   -0.000026334503749    -0.000029392157279     0.000052332119061
    0.000075214245329     0.000032204518295    -0.000009261393726
    0.000066182353184     0.000018762415157    -0.000020185519300
   -0.000036863741075    -0.000043246476467     0.000041820317567
   -0.000111951520753     0.000109873757259    -0.000099603939832
    0.000100100020153    -0.000085402684970    -0.000275111700493
   -0.000111941437568     0.000098161170888    -0.000111293908728
    0.000100093982771     0.000273676961118     0.000083975214107
    0.003628713821706     0.001815241538465    -0.001816650493486
   -0.000366912486007     0.000179436186207    -0.000180855778285
   -0.000035721675252     0.000031070846332    -0.000041702870775
    0.000065831590005    -0.000030524855344     0.000019892868479
    0.000106268163094     0.000076240951661     0.000282019465839
   -0.000109510977897    -0.000119492312167     0.000096882035372
    0.000106256163267    -0.000292633451022    -0.000086862234005
   -0.000109509129156    -0.000107499487725     0.000108861074496
   -0.000395316276175    -0.000205671913070     0.000195028980166
    0.003448857749444    -0.001630495884679     0.001619864789551
    0.003616085939949    -0.001813227688211     0.001805205334771
   -0.000379121228558    -0.000177961627886     0.000169975774929
   -0.000124135044881    -0.000096685207749     0.000100392175487
    0.000087905970121    -0.000272185718805    -0.000094875474430
   -0.000124138733366    -0.000108386564257     0.000088690432836
    0.000087912523110     0.000086887268387     0.000264204412452
    0.000053997971924    -0.000017275809449     0.000009282945004
   -0.000049051687480     0.000044730718184    -0.000052720639102
   -0.000104979881413    -0.000097104753365    -0.000085028515673
    0.000107066161498     0.000098178822720    -0.000260560289217
    0.000073153723104    -0.000005986018727    -0.000005636481604
   -0.000029897839715     0.000056014624291     0.000056364754454
    0.003635568828442    -0.001802253947713    -0.001801914109750
   -0.000359975336212    -0.000166680560752    -0.000166328356589
   -0.000104977548116    -0.000085388674491    -0.000096753825325
    0.000107055082165    -0.000260895280269     0.000098516117504
    0.000099442543743    -0.000281412968876     0.000092081340008
   -0.000116310041907    -0.000096264944834    -0.000103644467990
   -0.000402134701171    -0.000194447451912    -0.000189807488243
    0.003442506948891    -0.001619753995219    -0.001615145546134
   -0.000042526104807     0.000042284702860     0.000046927358025
    0.000059027346941    -0.000019304531357    -0.000014663332606
    0.000099460221801     0.000087458587817    -0.000276792779574
   -0.000116310475405    -0.000108279579610    -0.000091640186025
 
33 
    0.019999999987830     0.000000691767305     0.000000090913223
   -0.000113539565794     0.000175719836924     0.000107893385666
    0.000101530846770     0.000266567975554     0.000017647285318
    0.003455300931363     0.001612248025612     0.001623202512148
   -0.000395902186555     0.000090800893260     0.000101685361630
    0.000063996045516    -0.000100693931876    -0.000089804455523
   -0.000037889205033    -0.000054904165203    -0.000044011721650
   -0.000113553471816     0.000096995859249     0.000186658200662
    0.000101536918437     0.000006755587534     0.000277463468403
    0.003453839800534    -0.001641210266338    -0.001644394941169
   -0.000396708129919    -0.000120428837510    -0.000123628923987
   -0.000114387669254    -0.000205401562936    -0.000129834911720
    0.000100702851261    -0.000296204686571    -0.000039593243607
   -0.000114384026487    -0.000126637257795    -0.000208596836658
    0.000100713484447    -0.000036390363183    -0.000299415878905
    0.000063169076309     0.000071067410095     0.000067868405148
   -0.000038721651431     0.000025265837197     0.000022067902990
   -0.000106413083210    -0.000187022535147     0.000114856745271
    0.000106246139221    -0.000277744107609     0.000025051632779
    0.003624053681100    -0.001811904327629     0.001816470859818
   -0.000364819612154    -0.000092959908472     0.000097495412630
    0.000069462366608     0.000082914892977    -0.000078366844744
   -0.000033251688072     0.000041438228324    -0.000036893998920
   -0.000106416062676    -0.000110305484019     0.000191595423975
    0.000106259300227    -0.000020502264045     0.000282308202683
    0.003594268861636     0.001792927138902    -0.001809815095912
   -0.000394109748906     0.000074390686052    -0.000091340109375
   -0.000135730847464     0.000168477962242    -0.000108705761256
    0.000076954772185     0.000259218276659    -0.000018891183891
   -0.000135730310407     0.000091752498008    -0.000185432903227
    0.000076947911371     0.000001946882999    -0.000276160874417
    0.000040147299766    -0.000101475049522     0.000084525753079
   -0.000062563883779    -0.000059996431225     0.000043044198848
   -0.021306210773535     0.000019946557594     0.000002813871732
   -0.000539273830982     0.000020150074152     0.000004133799651
   -0.000051740453737     0.000020151257695     0.000004127218069
   -0.000024024352636     0.000020150635879     0.000004127306235
   -0.000051738236926     0.000020148528572     0.000004132218180
   -0.000024023180700     0.000020149178244     0.000004128189763
   -0.000026491066198     0.000020149012948     0.000004127296568
   -0.000009489321168     0.000020149259195     0.000004129222662
    0.000057123917462     0.000124566829135     0.000106639752026
    0.000062139403580     0.000225173536458     0.000207250522674
    0.000074905707392     0.000218441154462    -0.000211699907485
    0.000056741645628     0.000123589698645    -0.000116852476507
    0.000074914760490    -0.000193762978002     0.000200493002266
    0.000056731922978    -0.000098909487378     0.000105648756038
    0.000057127018052    -0.000099905170557    -0.000117835218665
    0.000062141995962    -0.000200518506921    -0.000218441567023
    0.000128203217248    -0.000040795415723    -0.000380525003881
    0.000113465981570     0.000080276071472    -0.000385151091406
    0.000128190088897     0.000068036373736     0.000399184146470
    0.000113476800023    -0.000053046063438     0.000403807613727
    0.000056147443221     0.000020704745205    -0.000066309000530
    0.000056526901759     0.000005659848228    -0.000067169314722
    0.000056147021542     0.000006520123867     0.000084967631248
    0.000056526956255     0.000021566922250     0.000085831020975
   -0.000572454951467    -0.001024574845615    -0.000032516933705
   -0.000038259843535    -0.000129752619238    -0.000001428043708
   -0.000076107458140    -0.000129721420422    -0.000000905507074
   -0.000006252050104     0.000000654691910    -0.000000834428818
   -0.000572448760865     0.001023585564044     0.000030637273801
   -0.000038259544826     0.000128769934046    -0.000000439647442
   -0.000076110392697     0.000128735837860    -0.000000959791008
   -0.000006248808009    -0.000001635422285    -0.000001031818742
    0.000118813450471    -0.000401799838312    -0.000053118688135
    0.000104107022085    -0.000406423077240     0.000067931885763
    0.000046763390202    -0.000087567084095     0.000008389991390
    0.000047142484948    -0.000088428088548    -0.000006653813804
    0.000118827403698     0.000377935779481     0.000055696246201
    0.000104090014153     0.000382558421185    -0.000065362206717
    0.000046763926642     0.000063703396286    -0.000005793655726
    0.000047141791532     0.000064565874326     0.000009254303418
   -0.000584568008713    -0.000029622504161    -0.001034007037948
   -0.000050442620614     0.000001481980655    -0.000139230869356
   -0.000584603589786     0.000033496344415     0.001014092747182
   -0.000050443359940     0.000002466724339     0.000119292329271
   -0.000088296500762     0.000002005640262    -0.000139198308792
   -0.000018433780173     0.000002077336617    -0.000008824983113
   -0.000088294743604     0.000001949437834     0.000119267064824
   -0.000018435574932     0.000001879252612    -0.000011112637740
   -0.000127899704227     0.000410511576554     0.000410857009141
    0.000056671778441     0.000089839225106     0.000090190885336
   -0.000141552480462     0.000400219946192    -0.000373332225750
    0.000053640616141     0.000088862013375    -0.000061986402991
   -0.000141540315809    -0.000373689626381     0.000400564122536
    0.000053641735670    -0.000062335915449     0.000089211898203
   -0.000127895639650    -0.000384001019128    -0.000383654363069
    0.000056673413170    -0.000063317778051    -0.000062966582980
    0.005471019879092    -0.000000684759157     0.000003937980645
    0.005250800706692    -0.000000736123841     0.000003976413431
    0.000035156936092    -0.000000718101739     0.000003926026693
    0.000035769976802    -0.000000719869572     0.000003921145539
    0.000035153290774    -0.000000717757655     0.000003927464306
    0.000035767597040    -0.000000717297803     0.000003928376982
    0.000020997838261    -0.000000716834432     0.000003924563215
    0.000021076166444    -0.000000717992200     0.000003925164588
