324 
2 
 
1 
    0.010000000000000     0.000000000000000     0.000000000000000
   -0.075760996747693    -0.000000000000059    -0.000000000000081
   -0.006285308271730     0.000000547793283     0.000000547793282
   -0.000014951984102     0.000000004104476     0.000000004104454
   -0.000000065187806    -0.000000000000098    -0.000000000000105
   -0.000014951984092    -0.000000004104421    -0.000000004104433
   -0.006285308271727    -0.000000547793250    -0.000000547793251
    0.006293750033019    -0.000000000000002     0.008214979435519
    0.000008842992681     0.000277911405821     0.000145962066397
    0.000000517715406     0.000003011639169    -0.000000000000025
    0.000000517715419    -0.000000000000010    -0.000003011639120
    0.000008842992689    -0.000145962066366    -0.000277911405771
    0.006293750033039    -0.008214979435495    -0.000000000000016
    0.000122461242199    -0.000000000000030     0.000143991545159
    0.000003260217040     0.000003039433021    -0.000000000000024
    0.000001397325755     0.000004609540664    -0.000004609540633
    0.000003260217071    -0.000000000000015    -0.000003039432972
    0.000122461242186    -0.000143991545118    -0.000000000000035
    0.000132762485112    -0.000146175736011     0.000146175736069
    0.000003951549964    -0.000000000000095    -0.000000000000111
    0.000012571114364     0.000000021639560    -0.000000025613170
    0.000012571114352     0.000000025613247    -0.000000021639504
    0.000003951549994    -0.000000000000097    -0.000000000000115
    0.000012571114340    -0.000000025613174     0.000000021639546
    0.000012571114358    -0.000000021639506     0.000000025613218
    0.000124218517452    -0.000000000000019     0.000145010653634
    0.000135084481511    -0.000146043192204     0.000146043192286
    0.000124218517446    -0.000145010653598    -0.000000000000040
    0.000003270567711    -0.000000000000029    -0.000003003090358
    0.000001433898331     0.000004611148235    -0.000004611148188
    0.000003270567725     0.000003003090389    -0.000000000000027
    0.006254262774928    -0.000000000000005     0.008117641237190
    0.006254262774937    -0.008117641237151    -0.000000000000014
    0.000008524313833    -0.000146250423608    -0.000277453688840
    0.000000526336296    -0.000000000000015    -0.000003030638058
    0.000000526336278     0.000003030638114    -0.000000000000025
    0.000008524313843     0.000277453688901     0.000146250423638
    0.006293750033014     0.008214979435509     0.000000000000006
    0.000008842992669     0.000145962066395     0.000277911405822
    0.000000517715411    -0.000000000000023     0.000003011639166
    0.000000517715411    -0.000003011639127    -0.000000000000007
    0.000008842992674    -0.000277911405770    -0.000145962066377
    0.006293750033041    -0.000000000000014    -0.008214979435496
    0.000132762485081     0.000146175736050     0.000146175736052
    0.000001397325758     0.000004609540662     0.000004609540653
   -0.000000013785022    -0.000000000000021    -0.000000000000007
    0.000001397325768    -0.000004609540636    -0.000004609540632
    0.000132762485112    -0.000146175736003    -0.000146175736017
    0.002309361520916    -0.000000000000031    -0.000000000000026
    0.000012571114343     0.000000021639569     0.000000025613215
   -0.000000113000221     0.000000000188778    -0.000000000000012
   -0.000000113000247    -0.000000000000042    -0.000000000188665
    0.000012571114360    -0.000000025613149    -0.000000021639515
    0.000326433226828    -0.000002071459740    -0.000000000000011
    0.000326433226825    -0.000000000000033     0.000002071459812
    0.000003270567693    -0.000003003090349    -0.000000000000012
    0.000001433898339    -0.000004611148190     0.000004611148240
    0.000003270567723    -0.000000000000016     0.000003003090394
    0.000124218517453     0.000145010653642    -0.000000000000019
    0.000135084481481     0.000146043192271    -0.000146043192228
    0.000124218517462    -0.000000000000037    -0.000145010653603
    0.000008524313848    -0.000277453688858     0.000146250423650
    0.000008524313849    -0.000146250423596     0.000277453688897
    0.000006810259424    -0.000000000000034    -0.000000000000015
    0.000008524313843     0.000146250423640    -0.000277453688857
    0.000008524313835     0.000277453688901    -0.000146250423611
    0.000006810259434    -0.000000000000008    -0.000000000000022
   -0.006285308271751     0.000000547793297    -0.000000547793263
   -0.000799448552809     0.000001438342011    -0.000000000000025
   -0.000020921869624    -0.000000000000038    -0.000000105511428
   -0.000014951984098    -0.000000004104417     0.000000004104464
   -0.000020921869598     0.000000105511498    -0.000000000000023
   -0.000799448552853    -0.000000000000077    -0.000001438341951
    0.000122461242195     0.000143991545158    -0.000000000000037
    0.000003260217036    -0.000000000000031     0.000003039433023
    0.000001397325759    -0.000004609540637     0.000004609540652
    0.000003260217046    -0.000003039432965    -0.000000000000012
    0.000122461242204    -0.000000000000036    -0.000143991545118
    0.000132762485085     0.000146175736067    -0.000146175736010
    0.000012571114342     0.000000025613220     0.000000021639566
   -0.000000113000236    -0.000000000000030     0.000000000188783
   -0.000000113000220    -0.000000000188659    -0.000000000000011
    0.000012571114336    -0.000000021639514    -0.000000025613172
    0.000326433226806    -0.000000000000043    -0.000002071459741
    0.000326433226817     0.000002071459810    -0.000000000000014
    0.000001433898341    -0.000004611148203    -0.000004611148212
   -0.000000014357720    -0.000000000000017    -0.000000000000014
    0.000001433898346     0.000004611148234     0.000004611148229
    0.000135084481484     0.000146043192272     0.000146043192267
    0.002276200232423    -0.000000000000049    -0.000000000000037
    0.000135084481489    -0.000146043192226    -0.000146043192230
    0.000000526336290    -0.000003030638045    -0.000000000000014
    0.000000526336276    -0.000000000000019     0.000003030638102
    0.000008524313844     0.000146250423639     0.000277453688903
    0.006254262774936     0.008117641237205    -0.000000000000019
    0.006254262774921    -0.000000000000016    -0.008117641237144
    0.000008524313828    -0.000277453688840    -0.000146250423627
   -0.000014951984093     0.000000004104467    -0.000000004104416
   -0.000020921869633    -0.000000000000053     0.000000105511500
   -0.000799448552826    -0.000001438341942    -0.000000000000044
   -0.006285308271751    -0.000000547793260     0.000000547793298
   -0.000799448552809    -0.000000000000039     0.000001438342012
   -0.000020921869619    -0.000000105511441    -0.000000000000026
    0.000008842992682     0.000145962066394    -0.000277911405782
    0.000006542708465    -0.000000000000036    -0.000000000000012
    0.000008842992674    -0.000145962066384     0.000277911405827
    0.000008842992684    -0.000277911405781     0.000145962066405
    0.000006542708458    -0.000000000000036    -0.000000000000028
    0.000008842992665     0.000277911405824    -0.000145962066383
    0.007879437949690    -0.002168686740318    -0.002168686740316
    0.000112130036520     0.000023543395154     0.000023543395161
    0.000000055213673     0.000000223150610     0.000000223150617
    0.000000055213648    -0.000000223150619    -0.000000223150620
    0.000112130036525    -0.000023543395155    -0.000023543395155
    0.007879437949690     0.002168686740323     0.002168686740334
    0.000116201342371    -0.000098404188412     0.000218310925086
   -0.000005150700149    -0.000005208163874    -0.000003816191902
   -0.000000084084271     0.000000282351549    -0.000000282351552
   -0.000005150700140     0.000003816191913     0.000005208163865
    0.000116201342362    -0.000218310925098     0.000098404188432
   -0.001949662298891     0.001049031515847    -0.001049031515850
   -0.000003187149023    -0.000002059647904    -0.000003824217674
    0.000000369268897    -0.000000088306329    -0.000000264707008
    0.000000369268882     0.000000264707010     0.000000088306301
   -0.000003187149023     0.000003824217697     0.000002059647910
   -0.000075846587660     0.000042721035026    -0.000008087827604
   -0.000075846587659     0.000008087827605    -0.000042721035035
   -0.000003102150055     0.000002027289880    -0.000003747305053
   -0.000016744001231     0.000020508055036    -0.000020508055047
   -0.000003102150028     0.000003747305055    -0.000002027289907
   -0.000003102150042    -0.000003747305049     0.000002027289888
   -0.000016744001230    -0.000020508055058     0.000020508055033
   -0.000003102150031    -0.000002027289910     0.000003747305060
    0.000112185859727     0.000100854310880     0.000211795401301
    0.000112185859717    -0.000211795401313    -0.000100854310851
   -0.000019681531904     0.000074460475302     0.000022067971017
   -0.000005209349216    -0.000003843371082     0.000005230426503
   -0.000005209349218    -0.000005230426520     0.000003843371080
   -0.000019681531906    -0.000022067971015    -0.000074460475303
    0.007610424759992     0.002339745111147    -0.002339745111144
   -0.000072386358605     0.000334566265647     0.000163030036157
    0.000004669964955    -0.000004546353445     0.000008676461398
    0.000000050179840     0.000000211954452    -0.000000211954439
    0.000004669964955    -0.000008676461405     0.000004546353446
   -0.000072386358610    -0.000163030036165    -0.000334566265650
    0.000116201342354     0.000218310925064    -0.000098404188416
   -0.000005150700141    -0.000003816191908    -0.000005208163871
   -0.000000084084269    -0.000000282351532     0.000000282351554
   -0.000005150700147     0.000005208163847     0.000003816191920
    0.000116201342362     0.000098404188423    -0.000218310925098
   -0.001949662298892    -0.001049031515852     0.001049031515848
   -0.000016924088091    -0.000020672281503    -0.000020672281500
    0.000000137471610     0.000000191542242     0.000000191542237
    0.000000137471598    -0.000000191542214    -0.000000191542224
   -0.000016924088095     0.000020672281485     0.000020672281491
   -0.000093037795890     0.000025947149262     0.000025947149268
   -0.000093037795876    -0.000025947149266    -0.000025947149265
    0.000000388732248     0.000000072110654    -0.000000278334022
    0.000000138508999    -0.000000192241127     0.000000192241128
    0.000000388732238     0.000000278334030    -0.000000072110665
   -0.000075608270841    -0.000042411673483    -0.000008141303301
   -0.000092609875805    -0.000025014422576     0.000025014422565
   -0.000075608270838     0.000008141303298     0.000042411673465
   -0.000005209349218     0.000005230426498    -0.000003843371080
   -0.000005209349215     0.000003843371089    -0.000005230426512
   -0.000019681531912    -0.000074460475301    -0.000022067971015
    0.000112185859734     0.000211795401306     0.000100854310881
    0.000112185859714    -0.000100854310864    -0.000211795401305
   -0.000019681531900     0.000022067971019     0.000074460475309
    0.000111966002668    -0.000024527285785     0.000024527285759
    0.000023615120034     0.000055762892698    -0.000003554649206
    0.000023615120040    -0.000055762892690     0.000003554649193
    0.000111966002672     0.000024527285759    -0.000024527285775
    0.000023615120034    -0.000003554649210     0.000055762892704
    0.000023615120037     0.000003554649197    -0.000055762892691
   -0.000069155780698    -0.000328670521677     0.000157567053024
    0.000023615206991    -0.000056135953159    -0.000003664971776
    0.000004749702398    -0.000004875010257    -0.000008613962831
    0.000004749702409     0.000008613962810     0.000004875010271
    0.000023615206972     0.000003664971781     0.000056135953177
   -0.000069155780687    -0.000157567053015     0.000328670521663
   -0.000003187149020    -0.000003824217672    -0.000002059647893
    0.000000369268893    -0.000000264707007    -0.000000088306327
    0.000000369268889     0.000000088306305     0.000000264707014
   -0.000003187149020     0.000002059647903     0.000003824217695
   -0.000075846587653    -0.000008087827598     0.000042721035030
   -0.000075846587654    -0.000042721035041     0.000008087827598
    0.000000388732245    -0.000000278334022     0.000000072110652
    0.000000138508991     0.000000192241132    -0.000000192241134
    0.000000388732238    -0.000000072110664     0.000000278334034
   -0.000075608270837    -0.000008141303301    -0.000042411673484
   -0.000092609875804     0.000025014422564    -0.000025014422582
   -0.000075608270841     0.000042411673459     0.000008141303298
   -0.000000080927982    -0.000000286692294    -0.000000286692285
   -0.000000080927981     0.000000286692292     0.000000286692288
   -0.000032010390735    -0.000080072061680    -0.000080072061679
   -0.001908383181497    -0.001024992073456    -0.001024992073468
   -0.001908383181493     0.001024992073465     0.001024992073461
   -0.000032010390767     0.000080072061639     0.000080072061639
    0.000000050179844    -0.000000211954445     0.000000211954463
    0.000004669964957     0.000004546353453    -0.000008676461411
   -0.000072386358605    -0.000334566265659    -0.000163030036166
    0.007610424760000    -0.002339745111140     0.002339745111147
   -0.000072386358602     0.000163030036160     0.000334566265652
    0.000004669964955     0.000008676461396    -0.000004546353450
    0.000004749702407     0.000004875010272     0.000008613962815
    0.000023615206968     0.000056135953177     0.000003664971778
   -0.000069155780686     0.000328670521665    -0.000157567053020
   -0.000069155780696     0.000157567053020    -0.000328670521674
    0.000023615206988    -0.000003664971777    -0.000056135953159
    0.000004749702401    -0.000008613962823    -0.000004875010266
   -0.000019623604063    -0.000074732661887     0.000022234337511
   -0.000019623604065     0.000074732661899    -0.000022234337524
   -0.000031773071898     0.000080176967255    -0.000080176967323
   -0.000019623604059     0.000022234337515    -0.000074732661890
   -0.000019623604066    -0.000022234337515     0.000074732661900
   -0.000031773071890    -0.000080176967316     0.000080176967248
   -0.000031773071900    -0.000080176967321    -0.000080176967321
   -0.000000084084256     0.000000282351548     0.000000282351558
   -0.000000084084261    -0.000000282351544    -0.000000282351550
   -0.000031773071888     0.000080176967275     0.000080176967264
   -0.001949662298893     0.001049031515848     0.001049031515856
   -0.001949662298896    -0.001049031515851    -0.001049031515860
    0.000000369268892    -0.000000088306315     0.000000264707026
    0.000000137471592     0.000000191542221    -0.000000191542205
    0.000000369268895    -0.000000264706999     0.000000088306318
   -0.000075846587664     0.000042721035017     0.000008087827598
   -0.000093037795887     0.000025947149266    -0.000025947149271
   -0.000075846587664    -0.000008087827609    -0.000042721035043
    0.000000388732235     0.000000072110665     0.000000278334035
    0.000000388732251    -0.000000278334020    -0.000000072110672
   -0.000003102150034    -0.000003747305038    -0.000002027289891
   -0.000075608270846    -0.000042411673486     0.000008141303293
   -0.000075608270840    -0.000008141303305     0.000042411673468
   -0.000003102150039     0.000002027289896     0.000003747305065
   -0.000032010390746     0.000080072061648    -0.000080072061698
   -0.000019681531909     0.000074460475296    -0.000022067971029
   -0.000019681531914    -0.000074460475303     0.000022067971014
   -0.000032010390750    -0.000080072061697     0.000080072061643
   -0.000019681531906    -0.000022067971016     0.000074460475310
   -0.000019681531906     0.000022067971012    -0.000074460475309
   -0.000072386358608     0.000334566265649    -0.000163030036155
    0.000023615120034     0.000055762892701     0.000003554649208
    0.000004669964951     0.000004546353451     0.000008676461398
    0.000004669964954    -0.000008676461405    -0.000004546353444
    0.000023615120034    -0.000003554649207    -0.000055762892693
   -0.000072386358606     0.000163030036155    -0.000334566265660
   -0.000069155780696    -0.000328670521681    -0.000157567053025
    0.000004749702400     0.000004875010255    -0.000008613962829
    0.000000055213665    -0.000000223150605     0.000000223150632
    0.000004749702401     0.000008613962804    -0.000004875010273
   -0.000069155780696     0.000157567053022     0.000328670521665
    0.007879437949682    -0.002168686740326     0.002168686740319
    0.000000369268893     0.000000264707022    -0.000000088306314
    0.000000137471589    -0.000000191542199     0.000000191542228
    0.000000369268892     0.000000088306310    -0.000000264707012
   -0.000075846587655     0.000008087827600     0.000042721035020
   -0.000093037795886    -0.000025947149264     0.000025947149262
   -0.000075846587661    -0.000042721035036    -0.000008087827605
    0.000000138509008    -0.000000192241132    -0.000000192241126
    0.000000138509001     0.000000192241141     0.000000192241143
   -0.000016744001228    -0.000020508055053    -0.000020508055045
   -0.000092609875804    -0.000025014422577    -0.000025014422580
   -0.000092609875814     0.000025014422566     0.000025014422565
   -0.000016744001224     0.000020508055034     0.000020508055031
   -0.000000080927982    -0.000000286692293     0.000000286692292
   -0.000005209349214    -0.000003843371080    -0.000005230426505
    0.000112185859717     0.000211795401292    -0.000100854310878
   -0.001908383181496    -0.001024992073460     0.001024992073450
    0.000112185859710     0.000100854310877    -0.000211795401308
   -0.000005209349221     0.000005230426492     0.000003843371096
    0.000004669964952    -0.000004546353442    -0.000008676461416
    0.000023615120043    -0.000055762892692    -0.000003554649211
   -0.000072386358608    -0.000334566265663     0.000163030036153
   -0.000072386358601    -0.000163030036157     0.000334566265646
    0.000023615120024     0.000003554649210     0.000055762892691
    0.000004669964960     0.000008676461404     0.000004546353452
    0.000023615206992    -0.000056135953168     0.000003664971770
    0.000023615206972     0.000056135953174    -0.000003664971796
    0.000112130036520    -0.000023543395170     0.000023543395146
    0.000023615206988     0.000003664971769    -0.000056135953175
    0.000023615206975    -0.000003664971792     0.000056135953166
    0.000112130036523     0.000023543395139    -0.000023543395171
   -0.000019623604060    -0.000074732661896    -0.000022234337512
   -0.000005150700141     0.000003816191921    -0.000005208163876
   -0.000005150700152     0.000005208163841    -0.000003816191906
   -0.000019623604052     0.000022234337521     0.000074732661899
    0.000116201342356    -0.000098404188408    -0.000218310925097
    0.000116201342359     0.000218310925069     0.000098404188430
    0.000000388732243     0.000000278334035     0.000000072110660
    0.000000388732241    -0.000000072110671    -0.000000278334022
   -0.000003102150033    -0.000002027289897    -0.000003747305047
   -0.000075608270840     0.000008141303301    -0.000042411673481
   -0.000075608270841     0.000042411673462    -0.000008141303311
   -0.000003102150038     0.000003747305066     0.000002027289897
   -0.000000080927985     0.000000286692295    -0.000000286692293
   -0.000005209349202    -0.000005230426503    -0.000003843371070
    0.000112185859729    -0.000100854310870     0.000211795401293
   -0.001908383181495     0.001024992073456    -0.001024992073462
    0.000112185859709    -0.000211795401317     0.000100854310867
   -0.000005209349218     0.000003843371098     0.000005230426502
    0.000000050179855     0.000000211954451     0.000000211954446
    0.000111966002664     0.000024527285778     0.000024527285778
    0.007610424759982    -0.002339745111158    -0.002339745111175
    0.007610424759988     0.002339745111143     0.002339745111143
    0.000111966002675    -0.000024527285782    -0.000024527285781
    0.000000050179842    -0.000000211954436    -0.000000211954436
    0.000004749702399    -0.000004875010263     0.000008613962806
   -0.000069155780693     0.000328670521663     0.000157567053018
    0.007879437949683     0.002168686740312    -0.002168686740334
   -0.000069155780694    -0.000157567053015    -0.000328670521676
    0.000004749702405    -0.000008613962821     0.000004875010255
    0.000000055213662     0.000000223150622    -0.000000223150608
   -0.000019623604058     0.000074732661897     0.000022234337510
    0.000116201342360    -0.000218310925098    -0.000098404188406
    0.000116201342369     0.000098404188424     0.000218310925077
   -0.000019623604062    -0.000022234337513    -0.000074732661899
   -0.000005150700151    -0.000005208163879     0.000003816191923
   -0.000005150700138    -0.000003816191904     0.000005208163852
   -0.000003187149012     0.000003824217684    -0.000002059647922
   -0.000016924088086     0.000020672281482    -0.000020672281500
   -0.000003187149017     0.000002059647900    -0.000003824217671
   -0.000003187149013    -0.000002059647911     0.000003824217687
   -0.000016924088088    -0.000020672281503     0.000020672281475
   -0.000003187149022    -0.000003824217671     0.000002059647902
 
109 
    0.010000000000000     0.000000000000000     0.000000000000000
    0.007595754889711    -0.002385722607940    -0.002385722607961
    0.007595754889774     0.002385722607870     0.002385722607849
    0.000112497178316     0.000099906949889     0.000099906949874
    0.000000132170291     0.000002051150639     0.000002051150634
    0.000000132170365    -0.000002051150727    -0.000002051150709
    0.000112497178349    -0.000099906949811    -0.000099906949810
    0.007893599339961     0.002122598675088    -0.002122598675111
   -0.000068151913757    -0.000159452515219    -0.001033974732755
    0.000004799336360    -0.000022134596733    -0.000008089294957
    0.000000131550744    -0.000002035584690     0.000002035584702
    0.000004799336368     0.000008089294971     0.000022134596820
   -0.000068151913760     0.001033974732793     0.000159452515188
    0.000116587610026    -0.000024026395224     0.000218788260454
   -0.000019613928574    -0.000008687208419    -0.000042632777312
   -0.000005172163928    -0.000005225030183     0.000020582420709
   -0.000005172163890    -0.000020582420692     0.000005225030234
   -0.000019613928572     0.000042632777315     0.000008687208393
    0.000116587610024    -0.000218788260395     0.000024026395194
   -0.000003247266949    -0.000000218275295    -0.000003819581111
   -0.000003247266847     0.000000218275200     0.000003819581064
   -0.000016871646391    -0.000003820254660     0.000003820254752
   -0.000003247266920    -0.000003819581113    -0.000000218275325
   -0.000003247266859     0.000003819581048     0.000000218275191
   -0.000016871646400     0.000003820254743    -0.000003820254694
   -0.000003200441035     0.000000216765104    -0.000003752318023
   -0.000075451062998    -0.000004683587486    -0.000074041492805
   -0.000075451063003     0.000074041492881     0.000004683587464
   -0.000003200441028     0.000003752318044    -0.000000216765145
    0.000000303180125     0.000000274517620    -0.000000284050989
    0.000000303180149     0.000000284051047    -0.000000274517627
    0.000111789541612     0.000024029257363     0.000211307747056
   -0.001918347351999     0.000330221759689    -0.000330221759723
    0.000111789541621    -0.000211307746978    -0.000024029257352
   -0.000005187806033     0.000020597303753     0.000005213605068
   -0.000000081039374    -0.000000076690365     0.000000076690378
   -0.000005187806048    -0.000005213605008    -0.000020597303759
    0.007893599339946    -0.002122598675112     0.002122598675085
   -0.000068151913768    -0.001033974732752    -0.000159452515233
    0.000004799336356    -0.000008089294968    -0.000022134596724
    0.000000131550742     0.000002035584683    -0.000002035584682
    0.000004799336356     0.000022134596814     0.000008089294978
   -0.000068151913755     0.000159452515208     0.001033974732783
   -0.001939446650089    -0.000333012801806    -0.000333012801810
   -0.000031972242561    -0.000080541047419    -0.000080541047428
   -0.000000083978191    -0.000000083637180    -0.000000083637160
   -0.000000083978234     0.000000083637168     0.000000083637177
   -0.000031972242541     0.000080541047489     0.000080541047470
   -0.001939446650052     0.000333012801772     0.000333012801763
   -0.000076166323017     0.000004737231426    -0.000075156113688
    0.000000296585023     0.000000284990881     0.000000268568883
    0.000000059620931     0.000000193479481    -0.000000193479464
    0.000000296585040    -0.000000268568854    -0.000000284990770
   -0.000076166323015     0.000075156113751    -0.000004737231422
   -0.000092448947333     0.000056449514886    -0.000056449514913
   -0.000003200441038    -0.000000216765104     0.000003752318073
    0.000000303180124    -0.000000284050998     0.000000274517629
    0.000000303180161    -0.000000274517608     0.000000284051062
   -0.000003200441031    -0.000003752318053     0.000000216765087
   -0.000075451063018    -0.000074041492811    -0.000004683587512
   -0.000075451062991     0.000004683587462     0.000074041492857
   -0.000019691342452     0.000008603633751    -0.000042500196972
   -0.000031812974049     0.000079712235436    -0.000079712235368
   -0.000019691342473     0.000042500196988    -0.000008603633757
   -0.000019691342466    -0.000042500197011     0.000008603633727
   -0.000031812974065    -0.000079712235368     0.000079712235422
   -0.000019691342466    -0.000008603633751     0.000042500196995
   -0.000073210132459     0.000161138897678    -0.001039812248165
   -0.000073210132480     0.001039812248233    -0.000161138897705
    0.000023629552738     0.000025579360435     0.000003650877335
    0.000004778499400    -0.000008140719279     0.000022167328006
    0.000004778499430    -0.000022167327955     0.000008140719289
    0.000023629552705    -0.000003650877386    -0.000025579360439
    0.000116587610012     0.000218788260454    -0.000024026395241
   -0.000019613928566    -0.000042632777328    -0.000008687208430
   -0.000005172163918     0.000020582420692    -0.000005225030189
   -0.000005172163904     0.000005225030239    -0.000020582420680
   -0.000019613928563     0.000008687208406     0.000042632777336
    0.000116587610000     0.000024026395197    -0.000218788260401
   -0.000076166323017    -0.000075156113676     0.000004737231407
    0.000000296585014     0.000000268568856     0.000000284990888
    0.000000059620950    -0.000000193479476     0.000000193479509
    0.000000296585017    -0.000000284990766    -0.000000268568852
   -0.000076166323042    -0.000004737231440     0.000075156113741
   -0.000092448947336    -0.000056449514906     0.000056449514902
   -0.000016953932689     0.000003839365380     0.000003839365364
    0.000000058024161    -0.000000190319572    -0.000000190319557
    0.000000058024138     0.000000190319568     0.000000190319579
   -0.000016953932699    -0.000003839365317    -0.000003839365318
   -0.000093349976427    -0.000055452553516    -0.000055452553519
   -0.000093349976447     0.000055452553465     0.000055452553457
   -0.000005187806035     0.000005213605089     0.000020597303765
   -0.000000081039373     0.000000076690371    -0.000000076690357
   -0.000005187806048    -0.000020597303776    -0.000005213605006
    0.000111789541620     0.000211307747064     0.000024029257340
   -0.001918347352014    -0.000330221759709     0.000330221759678
    0.000111789541610    -0.000024029257338    -0.000211307747000
    0.000004778499407     0.000022167328006    -0.000008140719267
    0.000004778499394     0.000008140719252    -0.000022167327945
    0.000023629552728    -0.000025579360448    -0.000003650877366
   -0.000073210132461    -0.001039812248167     0.000161138897661
   -0.000073210132479    -0.000161138897702     0.001039812248232
    0.000023629552749     0.000003650877343     0.000025579360461
    0.000111752636406    -0.000099356327785     0.000099356327823
    0.000023759343335    -0.000025378019611     0.000003569078727
    0.000023759343311     0.000025378019579    -0.000003569078758
    0.000111752636417     0.000099356327824    -0.000099356327776
    0.000023759343335     0.000003569078720    -0.000025378019589
    0.000023759343309    -0.000003569078748     0.000025378019600
   -0.057462955712601     0.000000000000021     0.000000000000032
   -0.000990856186818     0.000512860813586     0.000512860813591
   -0.000014220921539     0.000014646334962     0.000014646334963
   -0.000000162671526    -0.000000000000005    -0.000000000000013
   -0.000014220921530    -0.000014646334959    -0.000014646334967
   -0.000990856186809    -0.000512860813603    -0.000512860813596
    0.001517203303495    -0.000518841535839     0.000998745639512
    0.000031433978633    -0.000011096253628    -0.000035868443852
    0.000000789741525     0.000001753084302     0.000000347651424
    0.000000789741519    -0.000000347651436    -0.000001753084300
    0.000031433978639     0.000035868443849     0.000011096253632
    0.001517203303487    -0.000998745639515     0.000518841535859
   -0.000029477339764    -0.000014533810059    -0.000009383795885
    0.000001907204198     0.000001776498112    -0.000002360211980
   -0.000000134365611     0.000001293723879    -0.000001293723894
    0.000001907204190     0.000002360211983    -0.000001776498108
   -0.000029477339771     0.000009383795882     0.000014533810073
   -0.000059140016064     0.000036006368081    -0.000036006368078
    0.000001272267296    -0.000000000000022    -0.000000000000029
    0.000007058109657     0.000000380421111     0.000002278973120