324 
2 
 
1 
    0.010000000000000    -0.000000000000000    -0.000000000000000
   -0.075581819696680    -0.000000000000067    -0.000000000000095
   -0.006285258276437     0.000000563407548     0.000000563407543
   -0.000014955181616     0.000000003990814     0.000000003990799
   -0.000000064620315    -0.000000000000096    -0.000000000000108
   -0.000014955181603    -0.000000003990765    -0.000000003990780
   -0.006285258276436    -0.000000563407513    -0.000000563407504
    0.006293445555735    -0.000000000000006     0.008215331699674
    0.000008856275482     0.000277925853827     0.000146116495803
    0.000000518952159     0.000003015343812    -0.000000000000035
    0.000000518952161    -0.000000000000005    -0.000003015343777
    0.000008856275490    -0.000146116495765    -0.000277925853757
    0.006293445555727    -0.008215331699650    -0.000000000000021
    0.000122465800428    -0.000000000000035     0.000144049897889
    0.000003266979693     0.000003043160262    -0.000000000000030
    0.000001397499399     0.000004607782685    -0.000004607782655
    0.000003266979714    -0.000000000000016    -0.000003043160210
    0.000122465800406    -0.000144049897853    -0.000000000000033
    0.000132729257548    -0.000146336832341     0.000146336832421
    0.000003946121272    -0.000000000000105    -0.000000000000108
    0.000012563631696     0.000000021455504    -0.000000025074671
    0.000012563631679     0.000000025074720    -0.000000021455460
    0.000003946121301    -0.000000000000085    -0.000000000000114
    0.000012563631690    -0.000000025074676     0.000000021455499
    0.000012563631700    -0.000000021455441     0.000000025074711
    0.000124223041512    -0.000000000000041     0.000145066411031
    0.000135052892122    -0.000146190924612     0.000146190924700
    0.000124223041512    -0.000145066411022    -0.000000000000023
    0.000003277343769    -0.000000000000013    -0.000003006834207
    0.000001434074083     0.000004609514364    -0.000004609514330
    0.000003277343780     0.000003006834260    -0.000000000000020
    0.006253936519124    -0.000000000000024     0.008117945187730
    0.006253936519127    -0.008117945187682    -0.000000000000020
    0.000008536953474    -0.000146405129264    -0.000277467803511
    0.000000527615768    -0.000000000000009    -0.000003034403523
    0.000000527615736     0.000003034403586    -0.000000000000021
    0.000008536953473     0.000277467803573     0.000146405129283
    0.006293445555719     0.008215331699656     0.000000000000006
    0.000008856275466     0.000146116495784     0.000277925853825
    0.000000518952124    -0.000000000000021     0.000003015343820
    0.000000518952157    -0.000003015343772    -0.000000000000009
    0.000008856275482    -0.000277925853761    -0.000146116495783
    0.006293445555764    -0.000000000000021    -0.008215331699655
    0.000132729257514     0.000146336832387     0.000146336832389
    0.000001397499392     0.000004607782668     0.000004607782670
   -0.000000014145326    -0.000000000000025    -0.000000000000012
    0.000001397499415    -0.000004607782656    -0.000004607782663
    0.000132729257559    -0.000146336832343    -0.000146336832351
    0.002231800361741    -0.000000000000020    -0.000000000000019
    0.000012563631679     0.000000021455517     0.000000025074709
   -0.000000113588306     0.000000000192144    -0.000000000000003
   -0.000000113588334    -0.000000000000041    -0.000000000192048
    0.000012563631688    -0.000000025074634    -0.000000021455451
    0.000327133598672    -0.000002085654356    -0.000000000000011
    0.000327133598664    -0.000000000000031     0.000002085654441
    0.000003277343765    -0.000003006834194    -0.000000000000012
    0.000001434074066    -0.000004609514319     0.000004609514352
    0.000003277343795    -0.000000000000003     0.000003006834247
    0.000124223041523     0.000145066411044    -0.000000000000030
    0.000135052892086     0.000146190924682    -0.000146190924633
    0.000124223041523    -0.000000000000043    -0.000145066411000
    0.000008536953484    -0.000277467803519     0.000146405129293
    0.000008536953482    -0.000146405129256     0.000277467803568
    0.000006840570309    -0.000000000000030    -0.000000000000012
    0.000008536953486     0.000146405129286    -0.000277467803525
    0.000008536953480     0.000277467803572    -0.000146405129257
    0.000006840570285    -0.000000000000015    -0.000000000000031
   -0.006285258276455     0.000000563407555    -0.000000563407528
   -0.000804365200874     0.000001604439033    -0.000000000000021
   -0.000020966220101    -0.000000000000034    -0.000000104662213
   -0.000014955181612    -0.000000003990758     0.000000003990799
   -0.000020966220075     0.000000104662290    -0.000000000000017
   -0.000804365200941    -0.000000000000089    -0.000001604438975
    0.000122465800408     0.000144049897890    -0.000000000000033
    0.000003266979690    -0.000000000000022     0.000003043160262
    0.000001397499396    -0.000004607782655     0.000004607782672
    0.000003266979713    -0.000003043160204    -0.000000000000015
    0.000122465800437    -0.000000000000026    -0.000144049897858
    0.000132729257525     0.000146336832401    -0.000146336832357
    0.000012563631675     0.000000025074705     0.000000021455507
   -0.000000113588304    -0.000000000000027     0.000000000192164
   -0.000000113588311    -0.000000000192035    -0.000000000000007
    0.000012563631668    -0.000000021455456    -0.000000025074671
    0.000327133598645    -0.000000000000044    -0.000002085654355
    0.000327133598649     0.000002085654416    -0.000000000000011
    0.000001434074072    -0.000004609514339    -0.000004609514337
   -0.000000014719315    -0.000000000000018    -0.000000000000010
    0.000001434074082     0.000004609514367     0.000004609514370
    0.000135052892088     0.000146190924685     0.000146190924677
    0.002193675005151    -0.000000000000044    -0.000000000000045
    0.000135052892101    -0.000146190924628    -0.000146190924648
    0.000000527615745    -0.000003034403524    -0.000000000000023
    0.000000527615744    -0.000000000000020     0.000003034403578
    0.000008536953473     0.000146405129289     0.000277467803565
    0.006253936519145     0.008117945187731    -0.000000000000030
    0.006253936519115    -0.000000000000015    -0.008117945187670
    0.000008536953467    -0.000277467803509    -0.000146405129264
   -0.000014955181601     0.000000003990811    -0.000000003990764
   -0.000020966220109    -0.000000000000062     0.000000104662303
   -0.000804365200900    -0.000001604438962    -0.000000000000042
   -0.006285258276438    -0.000000563407522     0.000000563407568
   -0.000804365200883    -0.000000000000034     0.000001604439045
   -0.000020966220095    -0.000000104662233    -0.000000000000023
    0.000008856275480     0.000146116495797    -0.000277925853783
    0.000006575158900    -0.000000000000036    -0.000000000000022
    0.000008856275453    -0.000146116495779     0.000277925853821
    0.000008856275469    -0.000277925853784     0.000146116495803
    0.000006575158943    -0.000000000000030    -0.000000000000020
    0.000008856275470     0.000277925853822    -0.000146116495785
    0.007880072731461    -0.002169643871478    -0.002169643871471
    0.000112129345579     0.000023538306829     0.000023538306830
    0.000000055079427     0.000000223867948     0.000000223867950
    0.000000055079412    -0.000000223867957    -0.000000223867953
    0.000112129345587    -0.000023538306832    -0.000023538306825
    0.007880072731463     0.002169643871487     0.002169643871490
    0.000116212457075    -0.000098394301459     0.000218249796834
   -0.000005153046950    -0.000005210385796    -0.000003810126420
   -0.000000084010999     0.000000282840161    -0.000000282840158
   -0.000005153046951     0.000003810126432     0.000005210385782
    0.000116212457061    -0.000218249796843     0.000098394301471
   -0.001949399463947     0.001049785973633    -0.001049785973647
   -0.000003186273374    -0.000002059755723    -0.000003820701315
    0.000000369486710    -0.000000088295457    -0.000000264521156
    0.000000369486707     0.000000264521148     0.000000088295441
   -0.000003186273364     0.000003820701320     0.000002059755723
   -0.000075832265331     0.000042690471950    -0.000008094581953
   -0.000075832265355     0.000008094581948    -0.000042690471958
   -0.000003101294431     0.000002027420807    -0.000003743788420
   -0.000016741478381     0.000020502243088    -0.000020502243096
   -0.000003101294420     0.000003743788420    -0.000002027420837
   -0.000003101294422    -0.000003743788417     0.000002027420814
   -0.000016741478387    -0.000020502243114     0.000020502243098
   -0.000003101294410    -0.000002027420838     0.000003743788417
    0.000112194732724     0.000100844436092     0.000211732357527
    0.000112194732716    -0.000211732357539    -0.000100844436069
   -0.000019693539319     0.000074490143888     0.000022068596645
   -0.000005211680490    -0.000003837238044     0.000005232623008
   -0.000005211680493    -0.000005232623019     0.000003837238036
   -0.000019693539303    -0.000022068596646    -0.000074490143884
    0.007611139077537     0.002340605572347    -0.002340605572340
   -0.000072391715898     0.000335361837503     0.000163009582194
    0.000004672067112    -0.000004545126833     0.000008684757255
    0.000000050040837     0.000000212673811    -0.000000212673797
    0.000004672067111    -0.000008684757257     0.000004545126839
   -0.000072391715899    -0.000163009582203    -0.000335361837505
    0.000116212457060     0.000218249796818    -0.000098394301459
   -0.000005153046943    -0.000003810126417    -0.000005210385787
   -0.000000084010987    -0.000000282840147     0.000000282840165
   -0.000005153046952     0.000005210385774     0.000003810126435
    0.000116212457056     0.000098394301457    -0.000218249796848
   -0.001949399463950    -0.001049785973641     0.001049785973639
   -0.000016921376254    -0.000020666101485    -0.000020666101481
    0.000000137510155     0.000000191536154     0.000000191536145
    0.000000137510138    -0.000000191536122    -0.000000191536130
   -0.000016921376258     0.000020666101464     0.000020666101468
   -0.000094048495852     0.000026538328010     0.000026538328032
   -0.000094048495842    -0.000026538328018    -0.000026538328019
    0.000000388939550     0.000000072075702    -0.000000278184084
    0.000000138546992    -0.000000192233506     0.000000192233516
    0.000000388939544     0.000000278184085    -0.000000072075720
   -0.000075592996202    -0.000042383584030    -0.000008147644614
   -0.000093578651606    -0.000025555403357     0.000025555403343
   -0.000075592996196     0.000008147644612     0.000042383584015
   -0.000005211680491     0.000005232622991    -0.000003837238032
   -0.000005211680491     0.000003837238049    -0.000005232623010
   -0.000019693539316    -0.000074490143886    -0.000022068596649
    0.000112194732739     0.000211732357546     0.000100844436092
    0.000112194732723    -0.000100844436081    -0.000211732357539
   -0.000019693539309     0.000022068596647     0.000074490143889
    0.000111964888666    -0.000024520760834     0.000024520760808
    0.000023663078349     0.000056027756144    -0.000003516935655
    0.000023663078358    -0.000056027756132     0.000003516935643
    0.000111964888668     0.000024520760818    -0.000024520760826
    0.000023663078356    -0.000003516935657     0.000056027756132
    0.000023663078352     0.000003516935643    -0.000056027756128
   -0.000069165053221    -0.000329458135094     0.000157549267116
    0.000023661361854    -0.000056403371419    -0.000003628525548
    0.000004751819871    -0.000004873729137    -0.000008622172564
    0.000004751819875     0.000008622172549     0.000004873729147
    0.000023661361848     0.000003628525546     0.000056403371443
   -0.000069165053214    -0.000157549267109     0.000329458135079
   -0.000003186273369    -0.000003820701311    -0.000002059755717
    0.000000369486715    -0.000000264521146    -0.000000088295460
    0.000000369486715     0.000000088295431     0.000000264521142
   -0.000003186273385     0.000002059755719     0.000003820701346
   -0.000075832265335    -0.000008094581949     0.000042690471954
   -0.000075832265328    -0.000042690471959     0.000008094581948
    0.000000388939548    -0.000000278184074     0.000000072075703
    0.000000138546983     0.000000192233517    -0.000000192233514
    0.000000388939544    -0.000000072075720     0.000000278184089
   -0.000075592996192    -0.000008147644617    -0.000042383584038
   -0.000093578651608     0.000025555403346    -0.000025555403365
   -0.000075592996199     0.000042383584013     0.000008147644602
   -0.000000080851130    -0.000000287176534    -0.000000287176540
   -0.000000080851122     0.000000287176541     0.000000287176539
   -0.000032011184168    -0.000080048278466    -0.000080048278467
   -0.001908184247405    -0.001025696472111    -0.001025696472112
   -0.001908184247393     0.001025696472116     0.001025696472113
   -0.000032011184193     0.000080048278440     0.000080048278438
    0.000000050040846    -0.000000212673797     0.000000212673827
    0.000004672067113     0.000004545126838    -0.000008684757262
   -0.000072391715900    -0.000335361837513    -0.000163009582211
    0.007611139077538    -0.002340605572340     0.002340605572344
   -0.000072391715899     0.000163009582199     0.000335361837504
    0.000004672067121     0.000008684757248    -0.000004545126839
    0.000004751819878     0.000004873729152     0.000008622172543
    0.000023661361841     0.000056403371434     0.000003628525542
   -0.000069165053207     0.000329458135084    -0.000157549267108
   -0.000069165053220     0.000157549267113    -0.000329458135087
    0.000023661361853    -0.000003628525555    -0.000056403371422
    0.000004751819871    -0.000008622172571    -0.000004873729141
   -0.000019635586879    -0.000074762885699     0.000022234987294
   -0.000019635586881     0.000074762885710    -0.000022234987295
   -0.000031774298657     0.000080152974464    -0.000080152974517
   -0.000019635586879     0.000022234987294    -0.000074762885712
   -0.000019635586886    -0.000022234987300     0.000074762885711
   -0.000031774298652    -0.000080152974511     0.000080152974459
   -0.000031774298662    -0.000080152974519    -0.000080152974522
   -0.000000084010983     0.000000282840162     0.000000282840163
   -0.000000084010988    -0.000000282840158    -0.000000282840154
   -0.000031774298654     0.000080152974485     0.000080152974470
   -0.001949399463950     0.001049785973632     0.001049785973642
   -0.001949399463953    -0.001049785973641    -0.001049785973648
    0.000000369486714    -0.000000088295445     0.000000264521154
    0.000000137510132     0.000000191536131    -0.000000191536117
    0.000000369486718    -0.000000264521140     0.000000088295441
   -0.000075832265340     0.000042690471946     0.000008094581950
   -0.000094048495862     0.000026538328012    -0.000026538328029
   -0.000075832265347    -0.000008094581957    -0.000042690471968
    0.000000388939541     0.000000072075702     0.000000278184090
    0.000000388939550    -0.000000278184074    -0.000000072075713
   -0.000003101294417    -0.000003743788412    -0.000002027420831
   -0.000075592996208    -0.000042383584038     0.000008147644608
   -0.000075592996195    -0.000008147644619     0.000042383584017
   -0.000003101294420     0.000002027420825     0.000003743788428
   -0.000032011184169     0.000080048278453    -0.000080048278485
   -0.000019693539321     0.000074490143884    -0.000022068596653
   -0.000019693539317    -0.000074490143889     0.000022068596637
   -0.000032011184177    -0.000080048278471     0.000080048278446
   -0.000019693539306    -0.000022068596648     0.000074490143884
   -0.000019693539313     0.000022068596641    -0.000074490143881
   -0.000072391715900     0.000335361837498    -0.000163009582196
    0.000023663078354     0.000056027756135     0.000003516935658
    0.000004672067111     0.000004545126836     0.000008684757257
    0.000004672067110    -0.000008684757264    -0.000004545126836
    0.000023663078355    -0.000003516935652    -0.000056027756129
   -0.000072391715901     0.000163009582201    -0.000335361837516
   -0.000069165053219    -0.000329458135097    -0.000157549267123
    0.000004751819872     0.000004873729132    -0.000008622172563
    0.000000055079423    -0.000000223867942     0.000000223867965
    0.000004751819872     0.000008622172543    -0.000004873729140
   -0.000069165053211     0.000157549267113     0.000329458135079
    0.007880072731464    -0.002169643871478     0.002169643871477
    0.000000369486712     0.000000264521161    -0.000000088295442
    0.000000137510136    -0.000000191536109     0.000000191536135
    0.000000369486713     0.000000088295431    -0.000000264521138
   -0.000075832265351     0.000008094581945     0.000042690471943
   -0.000094048495845    -0.000026538328010     0.000026538328016
   -0.000075832265342    -0.000042690471957    -0.000008094581958
    0.000000138547000    -0.000000192233510    -0.000000192233515
    0.000000138547001     0.000000192233534     0.000000192233518
   -0.000016741478382    -0.000020502243108    -0.000020502243106
   -0.000093578651613    -0.000025555403357    -0.000025555403354
   -0.000093578651614     0.000025555403346     0.000025555403342
   -0.000016741478375     0.000020502243090     0.000020502243089
   -0.000000080851127    -0.000000287176530     0.000000287176547
   -0.000005211680484    -0.000003837238037    -0.000005232623005
    0.000112194732731     0.000211732357528    -0.000100844436092
   -0.001908184247399    -0.001025696472118     0.001025696472102
    0.000112194732714     0.000100844436085    -0.000211732357540
   -0.000005211680500     0.000005232622987     0.000003837238045
    0.000004672067112    -0.000004545126828    -0.000008684757266
    0.000023663078356    -0.000056027756133    -0.000003516935667
   -0.000072391715904    -0.000335361837505     0.000163009582202
   -0.000072391715895    -0.000163009582198     0.000335361837507
    0.000023663078350     0.000003516935655     0.000056027756132
    0.000004672067125     0.000008684757254     0.000004545126845
    0.000023661361864    -0.000056403371418     0.000003628525550
    0.000023661361847     0.000056403371432    -0.000003628525566
    0.000112129345578    -0.000023538306843     0.000023538306819
    0.000023661361856     0.000003628525546    -0.000056403371442
    0.000023661361838    -0.000003628525565     0.000056403371428
    0.000112129345583     0.000023538306812    -0.000023538306846
   -0.000019635586878    -0.000074762885713    -0.000022234987296
   -0.000005153046940     0.000003810126431    -0.000005210385798
   -0.000005153046958     0.000005210385766    -0.000003810126421
   -0.000019635586889     0.000022234987296     0.000074762885715
    0.000116212457056    -0.000098394301452    -0.000218249796844
    0.000116212457059     0.000218249796813     0.000098394301473
    0.000000388939545     0.000000278184090     0.000000072075717
    0.000000388939543    -0.000000072075727    -0.000000278184088
   -0.000003101294413    -0.000002027420829    -0.000003743788407
   -0.000075592996191     0.000008147644615    -0.000042383584028
   -0.000075592996195     0.000042383584016    -0.000008147644618
   -0.000003101294413     0.000003743788433     0.000002027420822
   -0.000000080851129     0.000000287176541    -0.000000287176542
   -0.000005211680480    -0.000005232623005    -0.000003837238035
    0.000112194732733    -0.000100844436082     0.000211732357526
   -0.001908184247400     0.001025696472113    -0.001025696472121
    0.000112194732715    -0.000211732357545     0.000100844436081
   -0.000005211680496     0.000003837238056     0.000005232622997
    0.000000050040844     0.000000212673804     0.000000212673805
    0.000111964888662     0.000024520760829     0.000024520760821
    0.007611139077532    -0.002340605572353    -0.002340605572356
    0.007611139077527     0.002340605572340     0.002340605572338
    0.000111964888673    -0.000024520760832    -0.000024520760826
    0.000000050040849    -0.000000212673786    -0.000000212673805
    0.000004751819872    -0.000004873729138     0.000008622172550
   -0.000069165053211     0.000329458135082     0.000157549267099
    0.007880072731456     0.002169643871471    -0.002169643871490
   -0.000069165053220    -0.000157549267115    -0.000329458135093
    0.000004751819869    -0.000008622172564     0.000004873729141
    0.000000055079423     0.000000223867961    -0.000000223867940
   -0.000019635586887     0.000074762885714     0.000022234987296
    0.000116212457064    -0.000218249796844    -0.000098394301459
    0.000116212457066     0.000098394301461     0.000218249796828
   -0.000019635586879    -0.000022234987296    -0.000074762885719
   -0.000005153046953    -0.000005210385803     0.000003810126435
   -0.000005153046947    -0.000003810126415     0.000005210385766
   -0.000003186273360     0.000003820701321    -0.000002059755733
   -0.000016921376244     0.000020666101465    -0.000020666101482
   -0.000003186273380     0.000002059755719    -0.000003820701316
   -0.000003186273362    -0.000002059755730     0.000003820701319
   -0.000016921376250    -0.000020666101479     0.000020666101465
   -0.000003186273358    -0.000003820701304     0.000002059755720
 
109 
    0.010000000000000    -0.000000000000000    -0.000000000000000
    0.007596448606580    -0.002386602882356    -0.002386602882393
    0.007596448606652     0.002386602882308     0.002386602882291
    0.000112496185892     0.000099897666957     0.000099897666935
    0.000000131994126     0.000002051285203     0.000002051285190
    0.000000131994179    -0.000002051285293    -0.000002051285301
    0.000112496185929    -0.000099897666892    -0.000099897666883
    0.007894253441039     0.002123534900758    -0.002123534900755
   -0.000068160109307    -0.000159433937201    -0.001034707713515
    0.000004801435397    -0.000022135358034    -0.000008095842169
    0.000000131382905    -0.000002035688100     0.000002035688097
    0.000004801435409     0.000008095842151     0.000022135358125
   -0.000068160109340     0.001034707713546     0.000159433937196
    0.000116597977004    -0.000024020596632     0.000218726161691
   -0.000019626168486    -0.000008695507015    -0.000042603279875
   -0.000005174466683    -0.000005227204671     0.000020576355276
   -0.000005174466652    -0.000020576355291     0.000005227204731
   -0.000019626168508     0.000042603279859     0.000008695507016
    0.000116597977009    -0.000218726161642     0.000024020596639
   -0.000003246377289    -0.000000219046870    -0.000003815794688
   -0.000003246377188     0.000000219046798     0.000003815794592
   -0.000016869036689    -0.000003813589313     0.000003813589383
   -0.000003246377250    -0.000003815794678    -0.000000219046885
   -0.000003246377200     0.000003815794587     0.000000219046798
   -0.000016869036657     0.000003813589387    -0.000003813589329
   -0.000003199530824     0.000000217429385    -0.000003749077248
   -0.000075435938063    -0.000004682469700    -0.000074068633685
   -0.000075435938089     0.000074068633752     0.000004682469720
   -0.000003199530810     0.000003749077245    -0.000000217429405
    0.000000303422607     0.000000274311125    -0.000000284507212
    0.000000303422630     0.000000284507255    -0.000000274311148
    0.000111799150522     0.000024023443609     0.000211245887140
   -0.001918131137335     0.000331002268897    -0.000331002268911
    0.000111799150535    -0.000211245887073    -0.000024023443594
   -0.000005190181095     0.000020591369651     0.000005215850886
   -0.000000080966069    -0.000000076668334     0.000000076668335
   -0.000005190181117    -0.000005215850830    -0.000020591369664
    0.007894253441020    -0.002123534900764     0.002123534900761
   -0.000068160109326    -0.001034707713520    -0.000159433937208
    0.000004801435365    -0.000008095842158    -0.000022135358034
    0.000000131382900     0.000002035688092    -0.000002035688095
    0.000004801435396     0.000022135358113     0.000008095842134
   -0.000068160109306     0.000159433937204     0.001034707713546
   -0.001939199697133    -0.000333814014672    -0.000333814014682
   -0.000031973207480    -0.000080516776587    -0.000080516776594
   -0.000000083901307    -0.000000083613441    -0.000000083613428
   -0.000000083901336     0.000000083613411     0.000000083613415
   -0.000031973207459     0.000080516776643     0.000080516776639
   -0.001939199697082     0.000333814014665     0.000333814014664
   -0.000076151813012     0.000004735843764    -0.000075188817807
    0.000000296838352     0.000000285507070     0.000000268438555
    0.000000059694775     0.000000193470411    -0.000000193470427
    0.000000296838361    -0.000000268438512    -0.000000285506962
   -0.000076151813006     0.000075188817861    -0.000004735843738
   -0.000093431410532     0.000056738945512    -0.000056738945490
   -0.000003199530824    -0.000000217429381     0.000003749077249
    0.000000303422603    -0.000000284507194     0.000000274311126
    0.000000303422639    -0.000000274311130     0.000000284507256
   -0.000003199530807    -0.000003749077253     0.000000217429390
   -0.000075435938109    -0.000074068633713    -0.000004682469721
   -0.000075435938076     0.000004682469704     0.000074068633766
   -0.000019703094722     0.000008611844429    -0.000042471025314
   -0.000031814033120     0.000079688752694    -0.000079688752633
   -0.000019703094720     0.000042471025293    -0.000008611844407
   -0.000019703094716    -0.000042471025341     0.000008611844422
   -0.000031814033128    -0.000079688752643     0.000079688752689
   -0.000019703094734    -0.000008611844414     0.000042471025304
   -0.000073216603735     0.000161119221644    -0.001040539027981
   -0.000073216603725     0.001040539028042    -0.000161119221649
    0.000023677325811     0.000026147982143     0.000003613214691
    0.000004780549084    -0.000008147284506     0.000022167842275
    0.000004780549106    -0.000022167842242     0.000008147284501
    0.000023677325764    -0.000003613214715    -0.000026147982162
    0.000116597976989     0.000218726161697    -0.000024020596641
   -0.000019626168498    -0.000042603279869    -0.000008695507016
   -0.000005174466679     0.000020576355257    -0.000005227204697
   -0.000005174466656     0.000005227204737    -0.000020576355277
   -0.000019626168471     0.000008695507018     0.000042603279857
    0.000116597976972     0.000024020596633    -0.000218726161650
   -0.000076151813008    -0.000075188817809     0.000004735843741
    0.000000296838355     0.000000268438530     0.000000285507082
    0.000000059694804    -0.000000193470428     0.000000193470437
    0.000000296838340    -0.000000285506970    -0.000000268438542
   -0.000076151813023    -0.000004735843768     0.000075188817866
   -0.000093431410542    -0.000056738945500     0.000056738945536
   -0.000016951237387     0.000003833844257     0.000003833844249
    0.000000058097544    -0.000000190314828    -0.000000190314819
    0.000000058097531     0.000000190314815     0.000000190314829
   -0.000016951237399    -0.000003833844206    -0.000003833844208
   -0.000094347176185    -0.000055694957982    -0.000055694957990
   -0.000094347176205     0.000055694957967     0.000055694957936
   -0.000005190181119     0.000005215850894     0.000020591369639
   -0.000000080966062     0.000000076668332    -0.000000076668338
   -0.000005190181122    -0.000020591369667    -0.000005215850836
    0.000111799150548     0.000211245887140     0.000024023443589
   -0.001918131137347    -0.000331002268896     0.000331002268901
    0.000111799150536    -0.000024023443577    -0.000211245887079
    0.000004780549095     0.000022167842287    -0.000008147284501
    0.000004780549077     0.000008147284450    -0.000022167842221
    0.000023677325803    -0.000026147982168    -0.000003613214677
   -0.000073216603719    -0.001040539027975     0.000161119221652
   -0.000073216603736    -0.000161119221659     0.001040539028044
    0.000023677325814     0.000003613214681     0.000026147982158
    0.000111751756079    -0.000099345891189     0.000099345891228
    0.000023805616394    -0.000025942486795     0.000003532584480
    0.000023805616400     0.000025942486739    -0.000003532584495
    0.000111751756068     0.000099345891230    -0.000099345891181
    0.000023805616443     0.000003532584472    -0.000025942486771
    0.000023805616411    -0.000003532584480     0.000025942486761
   -0.057397845746719     0.000000000000008     0.000000000000026
   -0.000990797783259     0.000512942681737     0.000512942681739
   -0.000014222250538     0.000014646708540     0.000014646708551
   -0.000000162614627    -0.000000000000004    -0.000000000000007
   -0.000014222250532    -0.000014646708538    -0.000014646708534
   -0.000990797783254    -0.000512942681752    -0.000512942681747
    0.001517177651822    -0.000518925734719     0.000999592873236
    0.000031438340645    -0.000011087163712    -0.000035840257939
    0.000000790097080     0.000001752924522     0.000000348001419
    0.000000790097081    -0.000000348001425    -0.000001752924508
    0.000031438340645     0.000035840257950     0.000011087163701
    0.001517177651812    -0.000999592873252     0.000518925734720
   -0.000029474170504    -0.000014534068135    -0.000009391277822
    0.000001906456030     0.000001776331258    -0.000002359947960
   -0.000000134048394     0.000001295476356    -0.000001295476352
    0.000001906456036     0.000002359947951    -0.000001776331279
   -0.000029474170497     0.000009391277833     0.000014534068130
   -0.000059161466682     0.000035978949470    -0.000035978949485
    0.000001271400250    -0.000000000000026    -0.000000000000014
    0.000007061496233     0.000000380817608     0.000002278565845