192 
2 
 
1 
    0.000000000000000     0.007071067811865     0.007071067811865
   -0.000002062626382    -0.053582022002972    -0.053582022003057
   -0.000000199108115     0.010293040778439     0.010293040778434
    0.000000364162073     0.000349892120609     0.000349892120591
   -0.000000232806046     0.010160622584586     0.010160622584627
    0.005806125619231    -0.004474889328831     0.004454280144363
    0.000299678805724     0.000116690331950     0.000200401841555
   -0.000298566502165     0.000202346908257     0.000116208432474
   -0.005750518010523     0.004426995557414    -0.004413607827026
    0.000191815025713    -0.000022630883943     0.000158450406020
   -0.000000127657699    -0.000182685957760    -0.000182719068617
   -0.000205380776197     0.000173451834793    -0.000021407123463
    0.000000189210612    -0.000182745843534    -0.000182647072342
    0.005757598712093    -0.004412852540614     0.004434812476396
   -0.005799728384113     0.004447284778624    -0.004475522560387
   -0.000299705806482     0.000200486434108     0.000116764970539
    0.000298532272499     0.000116136540161     0.000202255963213
    0.005806125619207     0.004454280144349    -0.004474889328807
    0.000299678805764     0.000200401841596     0.000116690331954
   -0.000298566502156     0.000116208432461     0.000202346908218
   -0.005750518010531    -0.004413607826988     0.004426995557422
    0.000210837341711     0.000204573169605     0.000204573169588
    0.000000012979821     0.000004174776062     0.000004174776068
   -0.000211907892882     0.000203941531077     0.000203941531053
    0.000001410750500    -0.000564336037423    -0.000564336037439
   -0.000087513132455    -0.000094994486930    -0.000009570337110
    0.000088095132659    -0.000010274033086    -0.000094905444225
   -0.000148049963536     0.000118205167228    -0.000012370436373
    0.000146929240815    -0.000012315444440     0.000117492704589
    0.000000064798773    -0.001337136955328    -0.001338877842045
   -0.000000001535420     0.001606371417287    -0.000568289233180
    0.000000002544641     0.000265392119286     0.000265245727347
   -0.000000002054430    -0.000560397582264     0.001588085513552
    0.000191815025708     0.000158450406019    -0.000022630883944
   -0.000000127657761    -0.000182719068642    -0.000182685957797
   -0.000205380776181    -0.000021407123382     0.000173451834833
    0.000000189210596    -0.000182647072333    -0.000182745843487
   -0.000087513132474    -0.000009570337170    -0.000094994486983
    0.000088095132655    -0.000094905444232    -0.000010274033095
   -0.000148049963528    -0.000012370436383     0.000118205167214
    0.000146929240792     0.000117492704561    -0.000012315444427
   -0.000000076641704    -0.000031850940999    -0.000031850940957
    0.000000002047040    -0.000029918764268    -0.000029918764231
   -0.000000001011841     0.000045728699205     0.000045728699197
    0.000000002037004    -0.000029364313881    -0.000029364313781
   -0.000088037003168    -0.000010310155015    -0.000094829717902
    0.000148032721655     0.000118190217503    -0.000012373128937
   -0.000146944416456    -0.000012312754538     0.000117509358750
    0.000087568442910    -0.000095068589087    -0.000009532912805
    0.005757598712105     0.004434812476359    -0.004412852540619
   -0.005799728384116    -0.004475522560388     0.004447284778622
   -0.000299705806445     0.000116764970533     0.000200486434088
    0.000298532272486     0.000202255963222     0.000116136540178
    0.000000064798772    -0.001338877842058    -0.001337136955341
   -0.000000001535423    -0.000568289233140     0.001606371417267
    0.000000002544680     0.000265245727310     0.000265392119311
   -0.000000002054407     0.001588085513598    -0.000560397582218
   -0.000088037003090    -0.000094829717912    -0.000010310154956
    0.000148032721725    -0.000012373128925     0.000118190217572
   -0.000146944416406     0.000117509358693    -0.000012312754503
    0.000087568442860    -0.000009532912855    -0.000095068589126
    0.000211760057921     0.000203867683496     0.000203867683539
   -0.000001403861739    -0.000564336502824    -0.000564336502764
   -0.000210981502522     0.000204645068642     0.000204645068670
   -0.000000002860000     0.000004174398954     0.000004174399000
   -0.003019503476856     0.004090174114123     0.004090174114125
   -0.000155124584406     0.000213002162530     0.000213002162532
    0.000118892022001     0.000203137024409     0.000203137024400
    0.003349666832573     0.003640583103672     0.003640583103687
    0.000149040961280    -0.000007761864336     0.000077069732201
   -0.000020071796606    -0.000052877666573    -0.000052961072919
   -0.000184428376516     0.000073762447764    -0.000010412400820
   -0.000015776374515     0.000041313078224     0.000045472550526
    0.000111724651445     0.000128517025617     0.000040977082400
   -0.000153494277483     0.000041567128162     0.000128238801818
    0.000072936555694    -0.000077468569428    -0.000002670676036
   -0.000112648914598    -0.000002754684129    -0.000077501113978
   -0.000006602639464     0.007045993678317     0.007055633145098
    0.000833228594669    -0.001631977372753    -0.000809866459170
   -0.000019725053677    -0.000170543038376    -0.000169999829305
   -0.000859257015531    -0.000796515596769    -0.001603516187158
    0.000149040961290     0.000077069732193    -0.000007761864331
   -0.000020071796600    -0.000052961072930    -0.000052877666554
   -0.000184428376499    -0.000010412400835     0.000073762447775
   -0.000015776374498     0.000045472550537     0.000041313078250
   -0.000046305817288    -0.000026478477686    -0.000026478477679
    0.000006489532327    -0.000026539880465    -0.000026539880495
    0.000063620431712    -0.000005701749888    -0.000005701749884
   -0.000103984122826    -0.000005775331283    -0.000005775331286
   -0.000020578176920    -0.000090832086434    -0.000091795661023
   -0.000000852017377    -0.000029252246183     0.000017868401882
   -0.000019859651808    -0.000039768619954    -0.000039651476307
   -0.000038445414980     0.000017260807211    -0.000029160209387
   -0.000642196855946    -0.001152885372619     0.000667003001992
   -0.000043413048684    -0.000113492668523    -0.000024645160278
    0.000003170190355    -0.000024423208515    -0.000112515179949
    0.000597475629674     0.000659590243508    -0.001145871269397
    0.000111724651446     0.000040977082405     0.000128517025630
   -0.000153494277475     0.000128238801815     0.000041567128199
    0.000072936555725    -0.000002670676037    -0.000077468569417
   -0.000112648914592    -0.000077501114010    -0.000002754684144
   -0.000020578176917    -0.000091795661026    -0.000090832086443
   -0.000000852017366     0.000017868401878    -0.000029252246198
   -0.000019859651823    -0.000039651476301    -0.000039768619963
   -0.000038445414960    -0.000029160209376     0.000017260807210
   -0.000000302713597    -0.000003630616352    -0.000003630616360
   -0.000030382725289    -0.000029355897857    -0.000029355897872
   -0.000009593038986    -0.000029272468159    -0.000029272468185
   -0.000039385340654    -0.000003890323833    -0.000003890323883
   -0.000093726833137    -0.000096570798579    -0.000022235753232
   -0.000019847921485    -0.000001217798955    -0.000001261941145
    0.000053709458323    -0.000022279878322    -0.000096523789885
   -0.000019684520136     0.000014276574687     0.000013951391023
   -0.000006602639445     0.007055633145101     0.007045993678317
    0.000833228594671    -0.000809866459178    -0.001631977372744
   -0.000019725053688    -0.000169999829324    -0.000170543038364
   -0.000859257015550    -0.001603516187151    -0.000796515596782
   -0.000642196855979     0.000667003001963    -0.001152885372632
   -0.000043413048680    -0.000024645160268    -0.000113492668510
    0.000003170190357    -0.000112515179944    -0.000024423208519
    0.000597475629657    -0.001145871269408     0.000659590243544
   -0.000093726833145    -0.000022235753229    -0.000096570798590
   -0.000019847921489    -0.000001261941137    -0.000001217798961
    0.000053709458312    -0.000096523789882    -0.000022279878324
   -0.000019684520147     0.000013951391028     0.000014276574684
   -0.000490089062812    -0.000185377671109    -0.000185377671099
    0.000446997907091    -0.000180938305281    -0.000180938305270
    0.000093382300201    -0.000098899557628    -0.000098899557650
   -0.000132503098458    -0.000098728578124    -0.000098728578097
   -0.000093355573795    -0.000059054115967    -0.000059054115958
    0.000132529648427    -0.000058877385645    -0.000058877385634
    0.000490379385601    -0.000145503822520    -0.000145503822490
   -0.000446703410967    -0.000141115689510    -0.000141115689503
    0.000019668896144     0.000054142764560     0.000053782274536
    0.000093739468620    -0.000056739086731     0.000017596355479
    0.000019824941050     0.000038636421576     0.000038580066653
   -0.000053702262149     0.000017578739791    -0.000056652458975
    0.000642039659731    -0.001113178334678     0.000707006497385
    0.000043421511526    -0.000073654411425     0.000015199840864
   -0.000003161424829     0.000015428494685    -0.000072656872995
   -0.000597629412950     0.000699285094075    -0.001105885467697
   -0.000833259541836    -0.001591886906778    -0.000769920545714
    0.000019739686565    -0.000130706330046    -0.000130135514403
    0.000859226865748    -0.000756763444765    -0.001563911717057
    0.000006445894606     0.007086626369449     0.007094636213675
    0.000019668896173     0.000053782274545     0.000054142764575
    0.000093739468648     0.000017596355467    -0.000056739086735
    0.000019824941095     0.000038580066666     0.000038636421585
   -0.000053702262143    -0.000056652458983     0.000017578739810
    0.000000318426285     0.000036215620572     0.000036215620543
    0.000030381854499     0.000010491982761     0.000010491982740
    0.000009592333040     0.000010576181103     0.000010576181112
    0.000039400262916     0.000035959288358     0.000035959288346
    0.000000859629868     0.000010599406184     0.000057710370714
    0.000019860339939     0.000000078949807     0.000000197620157
    0.000038453223149     0.000057115289490     0.000010684430818
    0.000020526060555    -0.000050999458794    -0.000051931023577
   -0.000072903639253    -0.000037630783521     0.000037161448315
    0.000112672975800     0.000037104222980    -0.000037646435860
   -0.000112048219806     0.000168653218168     0.000081162870732
    0.000153190599523     0.000081097316429     0.000167823486464
    0.000642039659723     0.000707006497373    -0.001113178334660
    0.000043421511531     0.000015199840882    -0.000073654411436
   -0.000003161424839    -0.000072656873001     0.000015428494669
   -0.000597629412935    -0.001105885467663     0.000699285094094
    0.000000859629843     0.000057710370709     0.000010599406158
    0.000019860339941     0.000000197620167     0.000000078949814
    0.000038453223137     0.000010684430827     0.000057115289486
    0.000020526060540    -0.000051931023550    -0.000050999458860
   -0.000063634208131     0.000034143092831     0.000034143092823
    0.000103969738032     0.000034076796320     0.000034076796296
    0.000046299679776     0.000013366179728     0.000013366179726
   -0.000006494565842     0.000013312049117     0.000013312049058
    0.000015810972677     0.000081043380610     0.000085442119922
   -0.000148579640355     0.000031450380898     0.000116461709109
    0.000020074398372    -0.000013039243627    -0.000013099816769
    0.000184893479347     0.000114076387696     0.000030061092559
   -0.000833259541825    -0.000769920545709    -0.001591886906808
    0.000019739686601    -0.000130135514421    -0.000130706330043
    0.000859226865761    -0.001563911717028    -0.000756763444773
    0.000006445894634     0.007094636213706     0.007086626369457
   -0.000072903639258     0.000037161448334    -0.000037630783515
    0.000112672975783    -0.000037646435861     0.000037104222978
   -0.000112048219805     0.000081162870728     0.000168653218161
    0.000153190599519     0.000167823486449     0.000081097316424
    0.000015810972660     0.000085442119955     0.000081043380572
   -0.000148579640375     0.000116461709118     0.000031450380877
    0.000020074398322    -0.000013099816794    -0.000013039243681
    0.000184893479357     0.000030061092618     0.000114076387660
    0.003020488444312     0.004129290774399     0.004129290774353
    0.000155204337146     0.000252719871238     0.000252719871216
   -0.000118820748912     0.000243120006678     0.000243120006687
   -0.003348749510673     0.003681077369146     0.003681077369151
 
65 
    0.000000000000000     0.007071067811865     0.007071067811865
   -0.003411352228178     0.003644259116234     0.003644259116160
    0.002958241673297     0.004125418946735     0.004125418946748
   -0.000034933720336     0.000233635951505     0.000233635951492
    0.000033954510018     0.000222353074873     0.000222353074922
    0.000035907027621     0.007030563835146     0.007110334688200
   -0.000348457372817    -0.000285223230434    -0.002109139169754
   -0.000000032906839    -0.000150386015089    -0.000150306302155
    0.000346438608560    -0.002084215881968    -0.000283333298539
    0.000218488842365     0.000063066147309     0.000146961061733
   -0.000093472182402     0.000016968176600    -0.000057703003893
    0.000092579231811    -0.000056956166492     0.000016982959014
   -0.000218312226659     0.000147012468557     0.000061995525867
    0.000077502619671     0.000096621222736     0.000007349468390
   -0.000007402026052     0.000065572814462     0.000061034208138
   -0.000084458321180     0.000011785542003     0.000096608083143
    0.000000072864730    -0.000033025684934    -0.000032959433967
    0.000035907027593     0.007110334688172     0.007030563835182
   -0.000348457372780    -0.002109139169723    -0.000285223230413
   -0.000000032906832    -0.000150306302175    -0.000150386015118
    0.000346438608554    -0.000283333298519    -0.002084215881955
   -0.001467399881775    -0.000161968468012    -0.000161968468025
   -0.000113579997975    -0.000079356922551    -0.000079356922542
    0.000112260709539    -0.000078425477511    -0.000078425477541
    0.001464913724935    -0.000164476813979    -0.000164476813988
   -0.000073447635143    -0.000002067526349    -0.000076811326183
    0.000000183334057     0.000034002875525     0.000034073305638
    0.000073527923301    -0.000076899613795    -0.000002134144569
    0.000000054427352     0.000018682001277     0.000018686644550
   -0.000121578507209     0.000186455690170    -0.000635642759065
    0.000120381734793    -0.000625683680771     0.000182411145680
    0.000044464540872    -0.000071797685429    -0.000025515924241
   -0.000043836087688    -0.000025433640329    -0.000072618139232
    0.000218488842379     0.000146961061734     0.000063066147315
   -0.000093472182444    -0.000057703003924     0.000016968176572
    0.000092579231850     0.000016982959087    -0.000056956166451
   -0.000218312226655     0.000061995525863     0.000147012468606
   -0.000073447635154    -0.000076811326232    -0.000002067526405
    0.000000183334057     0.000034073305635     0.000034002875514
    0.000073527923314    -0.000002134144577    -0.000076899613823
    0.000000054427333     0.000018686644523     0.000018682001292
    0.000019041571834     0.000016158080743     0.000016158080765
   -0.000019109958250     0.000016168683206     0.000016168683234
    0.000010425322569    -0.000009443139187    -0.000009443139205
   -0.000010364288357    -0.000009337048122    -0.000009337048032
   -0.000000538604158    -0.000070911678830    -0.000071867736034
   -0.000039781864335    -0.000030193117733     0.000058673408175
   -0.000000054273089    -0.000019922366504    -0.000019650265645
    0.000039521850519     0.000057999895937    -0.000030065188333
    0.000077502619695     0.000007349468352     0.000096621222731
   -0.000007402026053     0.000061034208131     0.000065572814472
   -0.000084458321133     0.000096608083131     0.000011785541985
    0.000000072864725    -0.000032959433957    -0.000033025684910
   -0.000121578507200    -0.000635642759084     0.000186455690153
    0.000120381734789     0.000182411145719    -0.000625683680785
    0.000044464540917    -0.000025515924280    -0.000071797685409
   -0.000043836087663    -0.000072618139181    -0.000025433640274
   -0.000000538604072    -0.000071867736028    -0.000070911678789
   -0.000039781864258     0.000058673408197    -0.000030193117672
   -0.000000054273035    -0.000019650265692    -0.000019922366481
    0.000039521850470    -0.000030065188373     0.000057999895890
   -0.000026339703282    -0.000006516610094    -0.000006516610068
   -0.000042266282279     0.000014082750235     0.000014082750289
    0.000041908187014     0.000014288321712     0.000014288321731
    0.000026457909777    -0.000006652764156    -0.000006652764123
    0.000410221652030    -0.040654984024998    -0.040654984025008
   -0.000756743253301     0.001770182163993     0.001770182163984
   -0.000019696802521    -0.000081572327398    -0.000081572327408
    0.000700243161550     0.001743263286542     0.001743263286546
    0.001055417221709    -0.001090400834602     0.001420490178969
    0.000009277168171     0.000044043150213    -0.000083852172063
   -0.000048063368609    -0.000083910245862     0.000042288208443
   -0.001080182388620     0.001410282582163    -0.001080854758359
   -0.000036208185645    -0.000040263879674    -0.000065099771753
   -0.000020036818668     0.000014458300584     0.000014521851048
   -0.000006784864089    -0.000061402762470    -0.000040085867434
   -0.000020555193655     0.000014585052090     0.000014400955766
    0.000324024807890    -0.000354749443765     0.000690342152867
   -0.000354788232000     0.000683709906895    -0.000359554408608
    0.000013667623406    -0.000022191286553    -0.000018864037167
   -0.000053148982544    -0.000018974643367    -0.000021395928169
    0.001055417221695     0.001420490178964    -0.001090400834606
    0.000009277168181    -0.000083852172073     0.000044043150227
   -0.000048063368606     0.000042288208433    -0.000083910245852
   -0.001080182388624    -0.001080854758344     0.001410282582187
   -0.000068095923674    -0.000004396228330    -0.000004396228320
   -0.000019964074673    -0.000020483052011    -0.000020483052033
    0.000027685038482    -0.000004481414952    -0.000004481414933
   -0.000018061766686    -0.000028980956464    -0.000028980956462
    0.000027331062599    -0.000032920165411    -0.000036427798098
   -0.000067849241165    -0.000035562356752    -0.000033285972790
   -0.000046913937205     0.000003154981476    -0.000025025389088
    0.000007190080552    -0.000024916646395     0.000003292384744
   -0.000020589863384     0.000342965374157     0.000352107371688
   -0.000020120630982    -0.000776057714426    -0.000029383705883
   -0.000019917891123     0.000030371442751     0.000030186255608
   -0.000020108120452    -0.000028588591019    -0.000776077431788
   -0.000036208185644    -0.000065099771747    -0.000040263879666
   -0.000020036818677     0.000014521851048     0.000014458300611
   -0.000006784864076    -0.000040085867428    -0.000061402762458
   -0.000020555193667     0.000014400955735     0.000014585052073
    0.000027331062591    -0.000036427798100    -0.000032920165420
   -0.000067849241151    -0.000033285972797    -0.000035562356767
   -0.000046913937199    -0.000025025389078     0.000003154981474
    0.000007190080570     0.000003292384743    -0.000024916646394
   -0.000019924981505    -0.000048339963826    -0.000048339963824
   -0.000001580762601    -0.000005461015832    -0.000005461015842
   -0.000019924365416    -0.000020380515445    -0.000020380515459
   -0.000038340810209    -0.000005436424820    -0.000005436424863
   -0.000034555598351    -0.000098628443003     0.000029041588919
   -0.000011216620099     0.000021741778222    -0.000043352749855
   -0.000028558570994    -0.000043352157749     0.000021468775558
   -0.000005588633829     0.000028890987303    -0.000097499029866
    0.000324024807917     0.000690342152874    -0.000354749443764
   -0.000354788232006    -0.000359554408619     0.000683709906900
    0.000013667623393    -0.000018864037182    -0.000022191286535
   -0.000053148982565    -0.000021395928162    -0.000018974643388
   -0.000020589863416     0.000352107371656     0.000342965374147
   -0.000020120630987    -0.000029383705876    -0.000776057714407
   -0.000019917891135     0.000030186255615     0.000030371442744
   -0.000020108120466    -0.000776077431798    -0.000028588590979
   -0.000034555598351     0.000029041588915    -0.000098628443002
   -0.000011216620098    -0.000043352749855     0.000021741778218
   -0.000028558570996     0.000021468775561    -0.000043352157746
   -0.000005588633830    -0.000097499029868     0.000028890987306
    0.000056040380307    -0.000004711929861    -0.000004711929857
   -0.000023532917458    -0.000028989212148    -0.000028989212137
   -0.000096501443670    -0.000004158436973    -0.000004158436994
   -0.000020096327287    -0.000020482161136    -0.000020482161104
    0.000366600164621     0.000498464873564     0.000498464873563
    0.000019920383506     0.000065171541983     0.000065171541989
   -0.000319030994211     0.000490341641533     0.000490341641551
   -0.000030032682220    -0.004080185731995    -0.004080185731994
    0.000060498931217     0.000039367076033     0.000024544577249
   -0.000020632437255     0.000024688733287     0.000039345056271
    0.000174423125799     0.000035000010143    -0.000027419399342
   -0.000134901763636    -0.000027464667931     0.000035769341754
    0.000021229562572     0.000150217063128     0.000152826411486
    0.000103042458611    -0.000129488655457     0.000044126192336
    0.000019932237782     0.000025426686249     0.000025175563892
   -0.000063194649542     0.000044086497625    -0.000129703237672
   -0.001296370874840     0.015007059957035    -0.002817560488418
   -0.000052036932545    -0.000286271013209    -0.000047544269553
    0.000091043381813    -0.000047957546832    -0.000282443086050
    0.001307704523690    -0.002739527686315     0.014893769301107
    0.000060498931240     0.000024544577256     0.000039367076048
   -0.000020632437252     0.000039345056257     0.000024688733283
    0.000174423125828    -0.000027419399322     0.000035000010154
   -0.000134901763644     0.000035769341749    -0.000027464667922
    0.000019902798210    -0.000015945602685    -0.000015945602700
   -0.000024512104204     0.000050762683844     0.000050762683837
    0.000019986061526    -0.000000985817777    -0.000000985817767
    0.000064364700001     0.000050785881866     0.000050785881865
    0.000083618857682    -0.000109629556591     0.000126809054352
    0.000009197609698     0.000053008644378     0.000009629679935
    0.000030535516234     0.000009736684486     0.000053078196536
   -0.000042997707309     0.000126592176126    -0.000109854921778
   -0.000071219921210    -0.000264799662131    -0.000091543898811
    0.000020046636809     0.000095296177060     0.000095132819655
    0.000111466398238    -0.000089985269256    -0.000264070290973
    0.000018173421856     0.000483515587199     0.000487114574925
    0.000021229562564     0.000152826411484     0.000150217063139
    0.000103042458621     0.000044126192363    -0.000129488655468
    0.000019932237770     0.000025175563879     0.000025426686230
   -0.000063194649524    -0.000129703237637     0.000044086497646
    0.000083618857653     0.000126809054344    -0.000109629556610
    0.000009197609679     0.000009629679948     0.000053008644384
    0.000030535516221     0.000053078196537     0.000009736684492
   -0.000042997707317    -0.000109854921753     0.000126592176060
    0.000024066523322     0.000021091549971     0.000021091549970
    0.000019994426429     0.000020352587039     0.000020352587026
    0.000015628531453     0.000021072220415     0.000021072220420
    0.000019880574998     0.000017206351504     0.000017206351452
   -0.000000691832347     0.000043009095830    -0.000018889426281
    0.000038914558890    -0.000019537010427     0.000044230717162
    0.000034693980842     0.000021597892330     0.000002397838486
    0.000005118678643     0.000002438521081     0.000021695868093
   -0.001296370874844    -0.002817560488414     0.015007059957004
   -0.000052036932528    -0.000047544269563    -0.000286271013206
    0.000091043381825    -0.000282443086017    -0.000047957546850
    0.001307704523703     0.014893769301141    -0.002739527686315
   -0.000071219921212    -0.000091543898792    -0.000264799662128
    0.000020046636798     0.000095132819664     0.000095296177057
    0.000111466398252    -0.000264070290985    -0.000089985269266
    0.000018173421871     0.000487114574909     0.000483515587196
   -0.000000691832351    -0.000018889426254     0.000043009095793
    0.000038914558877     0.000044230717178    -0.000019537010451
    0.000034693980804     0.000002397838453     0.000021597892275
    0.000005118678656     0.000021695868152     0.000002438521052
    0.000088850494232    -0.001476275153200    -0.001476275153248
   -0.000028078529872     0.000537212081706     0.000537212081677
    0.000019970788775    -0.000012337509422    -0.000012337509414
    0.000074773346102     0.000536453749996     0.000536453749993
