  MPI-parallelism will be employed.
------------------------------------------------------------
          Invoking FHI-aims ...
          Version 071914_7
          Compiled on 2016/02/25 at 20:09:42 on host gavazang.

          When using FHI-aims, please cite the following reference:

          Volker Blum, Ralf Gehrke, Felix Hanke, Paula Havu,
          Ville Havu, Xinguo Ren, Karsten Reuter, and Matthias Scheffler,
          'Ab Initio Molecular Simulations with Numeric Atom-Centered Orbitals: FHI-aims',
          Computer Physics Communications 180, 2175-2196 (2009)

          For any questions about FHI-aims, please visit the aimsclub website
          with its forums and wiki. Contributions to both the forums and the
          wiki are warmly encouraged - they are for you, and everyone is welcome there.

------------------------------------------------------------

  Date     :  20180526, Time     :  162000.339
  Time zero on CPU 1             :   0.200000000000000E+00  s.
  Internal wall clock time zero  :           296583600.339  s.

  Using        3 parallel tasks.
  Task        0 on host psm06 reporting.
  Task        1 on host psm06 reporting.
  Task        2 on host psm06 reporting.

  Performing system and environment tests:
  | Environment variable OMP_NUM_THREADS correctly set to 1.
  | Stacksize not measured: no C compiler
  | Checking for scalapack...
  | Testing pdtran()...
  | All pdtran() tests passed.

  Obtaining array dimensions for all initial allocations:
  
  -----------------------------------------------------------------------
  Parsing control.in (first pass over file, find array dimensions only).
  The contents of control.in will be repeated verbatim below
  unless switched off by setting 'verbatim_writeout .false.' .
  in the first line of control.in .
  -----------------------------------------------------------------------
  
    xc                 pbe
    spin               none
    relativistic       atomic_zora scalar
    charge             0.0
  #
  #  SCF convergence
  #
    occupation_type    gaussian 0.05
    mixer              pulay
      n_max_pulay        10
      charge_mix_param   0.5
    sc_accuracy_rho    1E-4
    sc_accuracy_eev    1E-2
    sc_accuracy_etot   1E-6
    compute_forces     .true.
    sc_accuracy_forces not_checked
    sc_iter_limit      100
  #  max_relaxation_steps 1000
  #
  #  Relaxation
  #
  # relax_geometry   bfgs 1.e-2
  #
  #
  ################################################################################
  #
  #  FHI-aims code project
  # Volker Blum, Fritz Haber Institute Berlin, 2009
  #
  #  Suggested "tight" defaults for Mg atom (to be pasted into control.in file)
  #
  ################################################################################
    species        Mg
  #     global species definitions
      nucleus             12
      mass                24.3050
  #
      l_hartree           6
  #
      cut_pot             5.0          2.0  1.0
      basis_dep_cutoff    1e-4
  #
      radial_base         40 7.0
      radial_multiplier   2
      angular_grids       specified
        division   0.5421   50
        division   0.8500  110
        division   1.0736  194
        division   1.1879  302
        division   1.2806  434
  #      division   1.4147  590
  #      division   1.4867  770
  #      division   1.6422  974
  #      division   2.6134 1202
  #      outer_grid   974
        outer_grid  434
  ################################################################################
  #
  #  Definition of "minimal" basis
  #
  ################################################################################
  #     valence basis states
      valence      3  s   2.
      valence      2  p   6.
  #     ion occupancy
      ion_occ      2  s   2.
      ion_occ      2  p   6.
  ################################################################################
  #
  #  Suggested additional basis functions. For production calculations,
  #  uncomment them one after another (the most important basis functions are
  #  listed first).
  #
  #  Constructed for dimers: 2.125 A, 2.375 A, 2.875 A, 3.375 A, 4.5 A
  #
  ################################################################################
  #  "First tier" - improvements: -230.76 meV to -21.94 meV
       hydro 2 p 1.5
       ionic 3 d auto
       hydro 3 s 2.4
  #  "Second tier" - improvements: -5.43 meV to -1.64 meV
  #     hydro 4 f 4.3
  #     hydro 2 p 3.4
  #     hydro 4 s 11.2
  #     hydro 3 d 6.2
  #  "Third tier" - improvements: -0.92 meV to -0.22 meV
  #     hydro 2 s 0.6
  #     hydro 3 p 4.8
  #     hydro 4 f 7.4
  #     hydro 5 g 6.6
  #     hydro 2 p 1.6
  #     hydro 3 d 1.8
  #  "Fourth tier" - improvements: -0.09 meV to -0.05 meV
  #     hydro 4 p 0.45
  #     hydro 5 g 10.4
  #     hydro 2 s 12.4
  #     hydro 4 d 1.7
  ################################################################################
  #
  #  FHI-aims code project
  # Volker Blum, Fritz Haber Institute Berlin, 2009
  #
  #  Suggested "tight" defaults for O atom (to be pasted into control.in file)
  #
  ################################################################################
    species        O
  #     global species definitions
      nucleus             8
      mass                15.9994
  #
      l_hartree           6
  #
      cut_pot             4.0  2.0  1.0
      basis_dep_cutoff    1e-4
  #
      radial_base         36 7.0
      radial_multiplier   2
       angular_grids specified
        division   0.1817   50
        division   0.3417  110
        division   0.4949  194
        division   0.6251  302
        division   0.8014  434
  #      division   0.8507  590
  #      division   0.8762  770
  #      division   0.9023  974
  #      division   1.2339 1202
  #      outer_grid 974
        outer_grid  434
  ################################################################################
  #
  #  Definition of "minimal" basis
  #
  ################################################################################
  #     valence basis states
      valence      2  s   2.
      valence      2  p   4.
  #     ion occupancy
      ion_occ      2  s   1.
      ion_occ      2  p   3.
  ################################################################################
  #
  #  Suggested additional basis functions. For production calculations,
  #  uncomment them one after another (the most important basis functions are
  #  listed first).
  #
  #  Constructed for dimers: 1.0 A, 1.208 A, 1.5 A, 2.0 A, 3.0 A
  #
  ################################################################################
  #  "First tier" - improvements: -699.05 meV to -159.38 meV
       hydro 2 p 1.8
       hydro 3 d 7.6
       hydro 3 s 6.4
  #  "Second tier" - improvements: -49.91 meV to -5.39 meV
       hydro 4 f 11.6
       hydro 3 p 6.2
       hydro 3 d 5.6
       hydro 5 g 17.6
       hydro 1 s 0.75
  #  "Third tier" - improvements: -2.83 meV to -0.50 meV
  #     ionic 2 p auto
  #     hydro 4 f 10.8
  #     hydro 4 d 4.7
  #     hydro 2 s 6.8
  #  "Fourth tier" - improvements: -0.40 meV to -0.12 meV
  #     hydro 3 p 5
  #     hydro 3 s 3.3
  #     hydro 5 g 15.6
  #     hydro 4 f 17.6
  #     hydro 4 d 14
  # Further basis functions - -0.08 meV and below
  #     hydro 3 s 2.1
  #     hydro 4 d 11.6
  #     hydro 3 p 16
  #     hydro 2 s 17.2
  
  -----------------------------------------------------------------------
  Completed first pass over input file control.in .
  -----------------------------------------------------------------------
  
  
  -----------------------------------------------------------------------
  Parsing geometry.in (first pass over file, find array dimensions only).
  The contents of geometry.in will be repeated verbatim below
  unless switched off by setting 'verbatim_writeout .false.' .
  in the first line of geometry.in .
  -----------------------------------------------------------------------
  
  atom     3.013088294737500E+00   4.820615319062500E+00   3.421618184950000E+00   Mg
  atom     4.721454252937500E+00   5.675046204062500E+00   3.013149728950000E+00    O
  atom     4.825952623837500E+00   5.914059557762500E+00   4.948829121850000E+00   Mg
  atom     3.031426747837500E+00   5.242485662462500E+00   5.328607476850000E+00    O
  atom     5.747815953037500E+00   4.229736779162500E+00   5.307176412250000E+00    O
  atom     3.734577603937500E+00   3.015406749062500E+00   3.610947161050000E+00    O
  atom     3.937318258537500E+00   3.519268684562500E+00   5.487176459950000E+00   Mg
  atom     5.459002055137500E+00   3.908780293862500E+00   3.402278614150000E+00   Mg
  
  -----------------------------------------------------------------------
  Completed first pass over input file geometry.in .
  -----------------------------------------------------------------------
  

  Basic array size parameters:
  | Number of species                 :        2
  | Number of atoms                   :        8
  | Max. basis fn. angular momentum   :        4
  | Max. atomic/ionic basis occupied n:        3
  | Max. number of basis fn. types    :        3
  | Max. radial fns per species/type  :        8
  | Max. logarithmic grid size        :     1334
  | Max. radial integration grid size :       81
  | Max. angular integration grid size:      434
  | Max. angular grid division number :        8
  | Radial grid for Hartree potential :     1334
  | Number of spin channels           :        1

------------------------------------------------------------
          Reading file control.in.
------------------------------------------------------------
  XC: Using PBE gradient-corrected functionals.
  Spin treatment: No spin polarisation.
  Scalar relativistic treatment of kinetic energy: on-site free-atom approximation to ZORA.
  Charge =   0.000000E+00: Neutral system requested explicitly.
  Occupation type: Gaussian broadening, width =   0.500000E-01 eV.
  Using pulay charge density mixing.
  Pulay mixing - number of memorized iterations:   10
  Charge density mixing - mixing parameter:     0.5000
  Convergence accuracy of self-consistent charge density: 0.1000E-03
  Convergence accuracy of sum of eigenvalues: 0.1000E-01
  Convergence accuracy of total energy: 0.1000E-05
  Forces will be computed.
  | Force self-consistency will not be checked explicitly.
  Maximum number of s.-c. iterations  :   100
 
  Reading configuration options for species Mg                  .
  | Found nuclear charge :  12.0000
  | Found atomic mass :    24.3050000000000      amu
  | Found l_max for Hartree potential  :   6
  | Found cutoff potl. onset [A], width [A], scale factor :    5.00000    2.00000    1.00000
  | Threshold for basis-dependent cutoff potential is   0.100000E-03
  | Found data for basic radial integration grid :    40 points, outermost radius =    7.000 A
  | Found multiplier for basic radial grid :   2
  | Found angular grid specification: user-specified.
  | Specified grid contains     6 separate shells.
  | Check grid settings after all constraints further below.
  | Found free-atom valence shell :  3 s   2.000
  | Found free-atom valence shell :  2 p   6.000
  | Found free-ion valence shell :  2 s   2.000
  | Found free-ion valence shell :  2 p   6.000
  | Found hydrogenic basis function :  2 p   1.500
  | Found ionic basis function :  3 d , default cutoff radius.
  | Found hydrogenic basis function :  3 s   2.400
  Species Mg                  : Missing cutoff potential type.
  Defaulting to exp(1/x)/(1-x)^2 type cutoff potential.
  Species Mg: No 'logarithmic' tag. Using default grid for free atom:
  | Default logarithmic grid data [bohr] : 0.1000E-03 0.1000E+03 0.1012E+01
  | Will include ionic basis functions of  2.0-fold positive Mg                   ion.
  Species Mg: On-site basis accuracy parameter (for Gram-Schmidt orthonormalisation) not specified.
  Using default value basis_acc =  0.1000000E-03.
  Species Mg                  : Using default innermost maximum threshold i_radial=  2 for radial functions.
  Species Mg                  : Default cutoff onset for free atom density etc. : 0.50000000E+01 AA.
  Species Mg                  : Basic radial grid will be enhanced according to radial_multiplier =   2, to contain    81 grid points.
 
  Reading configuration options for species O                   .
  | Found nuclear charge :   8.0000
  | Found atomic mass :    15.9994000000000      amu
  | Found l_max for Hartree potential  :   6
  | Found cutoff potl. onset [A], width [A], scale factor :    4.00000    2.00000    1.00000
  | Threshold for basis-dependent cutoff potential is   0.100000E-03
  | Found data for basic radial integration grid :    36 points, outermost radius =    7.000 A
  | Found multiplier for basic radial grid :   2
  | Found angular grid specification: user-specified.
  | Specified grid contains     6 separate shells.
  | Check grid settings after all constraints further below.
  | Found free-atom valence shell :  2 s   2.000
  | Found free-atom valence shell :  2 p   4.000
  | Found free-ion valence shell :  2 s   1.000
  | Found free-ion valence shell :  2 p   3.000
  | Found hydrogenic basis function :  2 p   1.800
  | Found hydrogenic basis function :  3 d   7.600
  | Found hydrogenic basis function :  3 s   6.400
  | Found hydrogenic basis function :  4 f  11.600
  | Found hydrogenic basis function :  3 p   6.200
  | Found hydrogenic basis function :  3 d   5.600
  | Found hydrogenic basis function :  5 g  17.600
  | Found hydrogenic basis function :  1 s   0.750
  Species O                   : Missing cutoff potential type.
  Defaulting to exp(1/x)/(1-x)^2 type cutoff potential.
  Species O : No 'logarithmic' tag. Using default grid for free atom:
  | Default logarithmic grid data [bohr] : 0.1000E-03 0.1000E+03 0.1012E+01
  Species O : On-site basis accuracy parameter (for Gram-Schmidt orthonormalisation) not specified.
  Using default value basis_acc =  0.1000000E-03.
  Species O                   : Using default innermost maximum threshold i_radial=  2 for radial functions.
  Species O                   : Default cutoff onset for free atom density etc. : 0.40000000E+01 AA.
  Species O                   : Basic radial grid will be enhanced according to radial_multiplier =   2, to contain    73 grid points.
 
  Finished reading input file 'control.in'. Consistency checks are next.
 
  Target number of points in a grid batch is not set. Defaulting to  100
  Method for grid partitioning is not set. Defaulting to parallel hash+maxmin partitioning.
  Batch size limit is not set. Defaulting to    200
  By default, will store active basis functions for each batch.
  If in need of memory, prune_basis_once .false. can be used to disable this option.
  communication_type for Hartree potential was not specified.
  Defaulting to calc_hartree .
  Pulay mixer: Number of initial linear mixing iterations not set.
  Defaulting to    0 iterations.
  Work space size for distributed Hartree potential not set.
  Defaulting to   0.200000E+03 MB.
  Algorithm-dependent basis array size parameters:
  | n_max_pulay                         :       10
  Geometry relaxation not requested: no relaxation will be performed.
  Handling of forces: Unphysical translation and rotation will be removed from forces.
  No accuracy limit for integral partition fn. given. Defaulting to 0.1000E-14.
  No threshold value for u(r) in integrations given. Defaulting to 0.1000E-05.
  No accuracy for occupation numbers given. Defaulting to 0.1000E-07.
  No threshold value for occupation numbers given. Defaulting to 0.0000E+00.
  No accuracy for fermi level given. Defaulting to 0.1000E-19.
  Maximum # of iterations to find E_F not set. Defaulting to  200.
  Preferred method for the eigenvalue solver ('KS_method') not specified in 'control.in'.
  Calling blacs routine to test compilation state
  Since scalapack support is enabled, defaulting to 'elpa'.
  Will not use alltoall communication since running on < 1024 CPUs.
  Threshold for basis singularities not set.
  Default threshold for basis singularities: 0.1000E-04
  partition_type (choice of integration weights) for integrals was not specified.
  | Using a version of the partition function of Stratmann and coworkers ('stratmann_smoother').
  | At each grid point, the set of atoms used to build the partition table is smoothly restricted to
  | only those atoms whose free-atom density would be non-zero at that grid point.
  Partitioning for Hartree potential was not defined. Using partition_type for integrals.
  | Adjusted default value of keyword multip_moments_threshold to:       0.10000000E-11
  | This value may affect high angular momentum components of the Hartree potential in periodic systems.
  No q(lm)/r^(l+1) cutoff set for long-range Hartree potential.
  | Using default value of  0.100000E-09 .
  | Verify using the multipole_threshold keyword.
  Defaulting to new monopole extrapolation.
  Density update method: automatic selection selected.
------------------------------------------------------------


------------------------------------------------------------
          Reading geometry description geometry.in.
------------------------------------------------------------
  Input structure read successfully.
  The structure contains        8 atoms,  and a total of         80.000 electrons.

  Input geometry:
  | No unit cell requested.
  | Atomic structure:
  |       Atom                x [A]            y [A]            z [A]
  |    1: Species Mg             3.013088         4.820615         3.421618
  |    2: Species O              4.721454         5.675046         3.013150
  |    3: Species Mg             4.825953         5.914060         4.948829
  |    4: Species O              3.031427         5.242486         5.328607
  |    5: Species O              5.747816         4.229737         5.307176
  |    6: Species O              3.734578         3.015407         3.610947
  |    7: Species Mg             3.937318         3.519269         5.487176
  |    8: Species Mg             5.459002         3.908780         3.402279
  |

  | The smallest distance between any two atoms is         1.95317741 AA.
  |
  | The first atom of this pair is atom number                      2 .
  | The second atom of this pair is atom number                     3 .

  Number of empty states per atom not set in control.in - providing a guess from actual geometry.
  | Total number of empty states used during s.c.f. cycle:       24
  If you use a very high smearing, use empty_states (per atom!) in control.in to increase this value.

  Structure-dependent array size parameters: 
  | Maximum number of distinct radial functions  :       18
  | Maximum number of basis functions            :      216
  | Number of Kohn-Sham states (occupied + empty):       64
------------------------------------------------------------

------------------------------------------------------------
          Preparing all fixed parts of the calculation.
------------------------------------------------------------
  Determining machine precision:
    2.225073858507201E-308
  Setting up grids for atomic and cluster calculations.

  Creating wave function, potential, and density for free atoms.

  Species: Mg

  List of occupied orbitals and eigenvalues:
    n    l              occ      energy [Ha]    energy [eV]
    1    0           2.0000       -46.365569     -1261.6713
    2    0           2.0000        -2.933660       -79.8290
    3    0           2.0000        -0.172310        -4.6888
    2    1           6.0000        -1.712180       -46.5908


  Species: O

  List of occupied orbitals and eigenvalues:
    n    l              occ      energy [Ha]    energy [eV]
    1    0           2.0000       -18.927378      -515.0401
    2    0           2.0000        -0.880539       -23.9607
    2    1           4.0000        -0.331811        -9.0290

  Creating fixed part of basis set: Ionic, confined, hydrogenic.
 
  Mg                   ion:

  List of free ionic orbitals and eigenvalues:
    n    l      energy [Ha]    energy [eV]
    1    0       -47.122987     -1282.2817
    2    0        -3.674099       -99.9773
    2    1        -2.451441       -66.7071


  List of ionic basis orbitals and eigenvalues:
    n    l      energy [Ha]    energy [eV]    outer radius [A]
    3    2        -0.259283        -7.0555       6.433556

 
  Mg                   hydrogenic:
 
  List of hydrogenic basis orbitals: 
    n    l      effective z      eigenvalue [eV]  inner max. [A]     outer max. [A]     outer radius [A]   
    2    1         1.500000        -7.6477           1.412879           1.412879           6.433556
    3    0         2.400000        -8.6076           0.162319           2.871052           6.433556
 
 
  O                    hydrogenic:
 
  List of hydrogenic basis orbitals: 
    n    l      effective z      eigenvalue [eV]  inner max. [A]     outer max. [A]     outer radius [A]   
    2    1         1.800000       -11.0118           1.178562           1.178562           5.432602
    3    2         7.600000       -87.3182           0.624125           0.624125           3.541477
    3    0         6.400000       -61.9209           0.061167           1.081902           4.306578
    4    3        11.600000      -114.4238           0.731631           0.731631           3.585037
    3    1         6.200000       -58.1113           0.255680           1.030270           4.306578
    3    2         5.600000       -47.4081           0.847233           0.847233           4.413171
    5    4        17.600000      -168.5799           0.749740           0.749740           3.372465
    1    0         0.750000        -7.6499           0.705284           0.705284           5.366593
 

  Adding cutoff potential to free-atom effective potential.
  Creating atomic-like basis functions for current effective potential.

  Species Mg                  :

  List of atomic basis orbitals and eigenvalues:
    n    l      energy [Ha]    energy [eV]    outer radius [A]
    1    0       -46.365569     -1261.6713       0.921046
    2    0        -2.933660       -79.8290       3.621735
    3    0        -0.172310        -4.6888       6.355385
    2    1        -1.712180       -46.5908       4.513184


  Species O                   :

  List of atomic basis orbitals and eigenvalues:
    n    l      energy [Ha]    energy [eV]    outer radius [A]
    1    0       -18.927378      -515.0401       1.415765
    2    0        -0.880539       -23.9607       5.048385
    2    1        -0.331811        -9.0290       5.301386

  Assembling full basis from fixed parts.
  | Species Mg :   atomic orbital   1 s accepted.
  | Species Mg :   atomic orbital   2 s accepted.
  | Species Mg :   atomic orbital   3 s accepted.
  | Species Mg :    hydro orbital   3 s accepted.
  | Species Mg :   atomic orbital   2 p accepted.
  | Species Mg :    hydro orbital   2 p accepted.
  | Species Mg :    ionic orbital   3 d accepted.
  | Species O :   atomic orbital   1 s accepted.
  | Species O :    hydro orbital   3 s accepted.
  | Species O :   atomic orbital   2 s accepted.
  | Species O :    hydro orbital   1 s accepted.
  | Species O :    hydro orbital   3 p accepted.
  | Species O :   atomic orbital   2 p accepted.
  | Species O :    hydro orbital   2 p accepted.
  | Species O :    hydro orbital   3 d accepted.
  | Species O :    hydro orbital   3 d accepted.
  | Species O :    hydro orbital   4 f accepted.
  | Species O :    hydro orbital   5 g accepted.
 
  Basis size parameters after reduction:
  | Total number of radial functions:       18
  | Total number of basis functions :      216
 
  Testing on-site integration grid accuracy.
  |  Species  Function  <phi|h_atom|phi> (log., in eV)  <phi|h_atom|phi> (rad., in eV)
           1        1              -1261.6713144217              -1261.6712951503
           1        2                -79.8289566456                -79.8289563655
           1        3                 -4.6894386927                 -4.6894729286
           1        4                  2.7139619174                  2.7132242579
           1        5                -46.5907827003                -46.5907826271
           1        6                 -0.7507207593                 -0.7507919905
           1        7                  3.3999512831                  3.3997485406
           2        8               -515.0401491148               -515.0401445497
           2        9                 15.1629302771                 15.1629233102
           2       10                -21.6127103295                -21.6127145449
           2       11                 14.4001435709                 14.4001765990
           2       12                 20.8862585187                 20.8862589491
           2       13                 -2.4803658578                 -2.4803665016
           2       14                 13.8586387760                 13.8586021622
           2       15                 45.8331828879                 45.8331828941
           2       16                 52.1851961049                 52.1851977023
           2       17                 85.4133898762                 85.4133899074
           2       18                142.1023296234                142.1023296272

  Preparing densities etc. for the partition functions (integrals / Hartree potential).

  Preparations completed.
  max(cpu_time)          :      0.220 s.
  Wall clock time (cpu1) :      0.235 s.
------------------------------------------------------------

------------------------------------------------------------
          Begin self-consistency loop: Initialization.

          Date     :  20180526, Time     :  162000.590
------------------------------------------------------------

  Initializing index lists of integration centers etc. from given atomic structure:
  | Number of centers in hartree potential         :         8
  | Number of centers in hartree multipole         :         8
  | Number of centers in electron density summation:         8
  | Number of centers in basis integrals           :         8
  | Number of centers in integrals                 :         8
  Using modified Scalapack Eigenvalue solver (ELPA)
  * Using 3 tasks for Scalapack Eigenvalue solver.
  Detailed listing of tasks and assigned k-points:
  (for non-periodic systems, the "k-point" denotes an internal label only)
   Task     0 k-point     1 on psm06
   Task     1 k-point     1 on psm06
   Task     2 k-point     1 on psm06
  Tasks:     3 split into      3 X      1 BLACS grid
  Calculating blocksize based on n_basis =          216 max_nprow =            3 max_npcol =            1
  Scalapack blocksize set to:           16
  Required Scalapack workspace - INTEGER:            1 REAL:             1
  Partitioning the integration grid into batches with parallel hashing+maxmin method.
  | Number of batches:     1997
  | Maximal batch size:     186
  | Minimal batch size:      64
  | Average batch size:      74.167
  | Standard deviation of batch sizes:      22.183

  Integration load balanced across     3 MPI tasks.
  Work distribution over tasks is as follows:
  Task     0 has      49381 integration points.
  Task     1 has      49361 integration points.
  Task     2 has      49370 integration points.
  Initializing partition tables, free-atom densities, potentials, etc. across the integration grid (initialize_grid_storage).
  | initialize_grid_storage: Actual outermost partition radius vs. multipole_radius_free
  | (-- VB: in principle, multipole_radius_free should be larger, hence this output)
  | Species        1: outer_partition_radius =              7.000000000000000 AA, multipole_radius_free =              7.008349926986249 AA.
  | Species        2: outer_partition_radius =              6.000000000000000 AA, multipole_radius_free =              6.064445521808699 AA.
  | Original list of interatomic distances with           8 x          8 entries is created.
  | Net number of integration points:   148112
  | of which are non-zero points    :   126640
  Obtaining max. number of non-zero basis functions in each batch (get_n_compute_maxes).
  | Maximal number of non-zero basis functions:      212 in task     0
  | Maximal number of non-zero basis functions:      212 in task     1
  | Maximal number of non-zero basis functions:      213 in task     2
  Selecting the method for density update.
  Loop over occupied states selected for charge density update.
  Integrating Hamiltonian matrix: batch-based integration.
  Time summed over all CPUs for integration: real work        1.414 s, elapsed        1.417 s
  Integrating overlap matrix.
  Time summed over all CPUs for integration: real work        0.775 s, elapsed        0.778 s
  Deallocating overlap matrix.

  Updating Kohn-Sham eigenvalues, eigenvectors, occupation numbers, and Fermi level.
  Solving generalized eigenproblem
  Solving real symmetric generalised eigenvalue problem by standard ScaLAPACK.
  Transforming overlap matrix with ScaLAPACK and checking for singularities.
  : Overlap matrix is nonsingular, using Cholesky decomposition
  | Lowest eigenvalue:  0.107378E-02
  Factoring overlap matrix with Cholesky decomposition
  Using Cholesky factor for transformation
  Using 1-stage real ELPA solver
  Determining occupation numbers for Kohn-Sham eigenstates.
  | Chemical potential (Fermi level) in eV                 : -.49236557E+01
  | Error in electron count due to remaining E_F inaccuracy: 0.00000000E+00
  | Maximum occupation number of highest empty state:  0.00E+00

  Writing Kohn-Sham eigenvalues.

  State    Occupation    Eigenvalue [Ha]    Eigenvalue [eV]
      1       2.00000         -46.386436        -1262.23915
      2       2.00000         -46.386434        -1262.23909
      3       2.00000         -46.386434        -1262.23909
      4       2.00000         -46.386433        -1262.23908
      5       2.00000         -19.021013         -517.58809
      6       2.00000         -19.021011         -517.58805
      7       2.00000         -19.021005         -517.58789
      8       2.00000         -19.021004         -517.58786
      9       2.00000          -2.960856          -80.56900
     10       2.00000          -2.960183          -80.55069
     11       2.00000          -2.960182          -80.55064
     12       2.00000          -2.960181          -80.55063
     13       2.00000          -1.745136          -47.48756
     14       2.00000          -1.741631          -47.39218
     15       2.00000          -1.741630          -47.39216
     16       2.00000          -1.741630          -47.39215
     17       2.00000          -1.739757          -47.34120
     18       2.00000          -1.739757          -47.34119
     19       2.00000          -1.738663          -47.31144
     20       2.00000          -1.738663          -47.31142
     21       2.00000          -1.738662          -47.31141
     22       2.00000          -1.738080          -47.29557
     23       2.00000          -1.738080          -47.29555
     24       2.00000          -1.738079          -47.29554
     25       2.00000          -1.030955          -28.05371
     26       2.00000          -1.012420          -27.54934
     27       2.00000          -1.012415          -27.54922
     28       2.00000          -1.012410          -27.54907
     29       2.00000          -0.516238          -14.04754
     30       2.00000          -0.486457          -13.23718
     31       2.00000          -0.486456          -13.23715
     32       2.00000          -0.486456          -13.23713
     33       2.00000          -0.477780          -13.00105
     34       2.00000          -0.477778          -13.00101
     35       2.00000          -0.451268          -12.27963
     36       2.00000          -0.451265          -12.27955
     37       2.00000          -0.451261          -12.27944
     38       2.00000          -0.447276          -12.17101
     39       2.00000          -0.447272          -12.17090
     40       2.00000          -0.447269          -12.17080
     41       0.00000          -0.151206           -4.11453
     42       0.00000          -0.102134           -2.77920
     43       0.00000          -0.102131           -2.77914
     44       0.00000          -0.102130           -2.77909
     45       0.00000          -0.025394           -0.69101
     46       0.00000          -0.012917           -0.35150
     47       0.00000          -0.012916           -0.35145
     48       0.00000          -0.012915           -0.35144
     49       0.00000          -0.009656           -0.26276
     50       0.00000          -0.009653           -0.26267
     51       0.00000           0.069249            1.88436
     52       0.00000           0.069251            1.88442
     53       0.00000           0.069251            1.88442
     54       0.00000           0.097994            2.66656
     55       0.00000           0.106510            2.89829
     56       0.00000           0.106512            2.89833
     57       0.00000           0.106514            2.89840
     58       0.00000           0.120131            3.26893
     59       0.00000           0.128812            3.50516
     60       0.00000           0.128814            3.50522
     61       0.00000           0.128815            3.50523
     62       0.00000           0.143725            3.91096
     63       0.00000           0.143728            3.91103
     64       0.00000           0.221220            6.01971

  Highest occupied state (VBM) at    -12.17079642 eV
  | Occupation number:      2.00000000

  Lowest unoccupied state (CBM) at    -4.11452588 eV
  | Occupation number:      0.00000000

  Overall HOMO-LUMO gap:      8.05627054 eV.
  Calculating total energy contributions from superposition of free atom densities.

  Total energy components:
  | Sum of eigenvalues            :        -608.09183364 Ha      -16547.02069660 eV
  | XC energy correction          :         -99.40481974 Ha       -2704.94277097 eV
  | XC potential correction       :         128.06695255 Ha        3484.87908753 eV
  | Free-atom electrostatic energy:        -524.44319562 Ha      -14270.82544450 eV
  | Hartree energy correction     :           0.00000000 Ha           0.00000000 eV
  | Entropy correction            :          -0.00000000 Ha          -0.00000000 eV
  | ---------------------------
  | Total energy                  :       -1103.87289645 Ha      -30037.90982454 eV
  | Total energy, T -> 0          :       -1103.87289645 Ha      -30037.90982454 eV  <-- do not rely on this value for anything but (periodic) metals
  | Electronic free energy        :       -1103.87289645 Ha      -30037.90982454 eV

  Derived energy quantities:
  | Kinetic energy                :        1102.63066312 Ha       30004.10693567 eV
  | Electrostatic energy          :       -2107.09873984 Ha      -57337.07398923 eV
  | Energy correction for multipole
  | error in Hartree potential    :           0.00000000 Ha           0.00000000 eV
  | Sum of eigenvalues per atom                           :       -2068.37758708 eV
  | Total energy (T->0) per atom                          :       -3754.73872807 eV  <-- do not rely on this value for anything but (periodic) metals
  | Electronic free energy per atom                       :       -3754.73872807 eV
  Initialize hartree_potential_storage
  Max. number of atoms included in rho_multipole:            8

  End scf initialization - timings             :  max(cpu_time)    wall_clock(cpu1)
  | Time for scf. initialization               :        1.210 s           1.203 s
  | Boundary condition initialization          :        0.000 s           0.000 s
  | Integration                                :        0.740 s           0.733 s
  | Solution of K.-S. eqns.                    :        0.020 s           0.017 s
  | Grid partitioning                          :        0.250 s           0.253 s
  | Preloading free-atom quantities on grid    :        0.020 s           0.016 s
  | Free-atom superposition energy             :        0.050 s           0.052 s
  | Total energy evaluation                    :        0.000 s           0.000 s
------------------------------------------------------------

------------------------------------------------------------
          Begin self-consistency iteration #    1

  Date     :  20180526, Time     :  162001.793
------------------------------------------------------------
  Evaluating new KS density.
  Integration grid: deviation in total charge (<rho> - N_e) =  -5.684342E-14
  Pulay mixing of updated and previous charge densities.

  Evaluating partitioned Hartree potential by multipole expansion.
  | Analytical far-field extrapolation by fixed multipoles:
  | Hartree multipole sum: apparent total charge =  -0.261101E-05
  Summing up the Hartree potential.
  Time summed over all CPUs for potential: real work        0.725 s, elapsed        0.733 s
  | RMS charge density error from multipole expansion :   0.550154E-02

  Integrating Hamiltonian matrix: batch-based integration.
  Time summed over all CPUs for integration: real work        1.413 s, elapsed        1.418 s

  Updating Kohn-Sham eigenvalues, eigenvectors, occupation numbers, and Fermi level.
  Solving generalized eigenproblem
  Solving real symmetric generalised eigenvalue problem by standard ScaLAPACK.
  Using Cholesky factor for transformation
  Using 1-stage real ELPA solver
  Determining occupation numbers for Kohn-Sham eigenstates.
  | Chemical potential (Fermi level) in eV                 : -.31174643E+01
  | Error in electron count due to remaining E_F inaccuracy: 0.00000000E+00
  | Maximum occupation number of highest empty state:  0.00E+00

  Writing Kohn-Sham eigenvalues.

  State    Occupation    Eigenvalue [Ha]    Eigenvalue [eV]
      1       2.00000         -46.348333        -1261.20232
      2       2.00000         -46.348328        -1261.20218
      3       2.00000         -46.348326        -1261.20211
      4       2.00000         -46.348322        -1261.20201
      5       2.00000         -18.425717         -501.38927
      6       2.00000         -18.425713         -501.38917
      7       2.00000         -18.425705         -501.38894
      8       2.00000         -18.425701         -501.38884
      9       2.00000          -2.911318          -79.22100
     10       2.00000          -2.910789          -79.20659
     11       2.00000          -2.910785          -79.20648
     12       2.00000          -2.910781          -79.20638
     13       2.00000          -1.695130          -46.12685
     14       2.00000          -1.691779          -46.03564
     15       2.00000          -1.691776          -46.03555
     16       2.00000          -1.691773          -46.03548
     17       2.00000          -1.689114          -45.96314
     18       2.00000          -1.689114          -45.96313
     19       2.00000          -1.688730          -45.95269
     20       2.00000          -1.688730          -45.95267
     21       2.00000          -1.688728          -45.95264
     22       2.00000          -1.687745          -45.92587
     23       2.00000          -1.687743          -45.92582
     24       2.00000          -1.687741          -45.92577
     25       2.00000          -0.703819          -19.15188
     26       2.00000          -0.673411          -18.32444
     27       2.00000          -0.673404          -18.32424
     28       2.00000          -0.673395          -18.32401
     29       2.00000          -0.230994           -6.28567
     30       2.00000          -0.215348           -5.85991
     31       2.00000          -0.215345           -5.85984
     32       2.00000          -0.215344           -5.85981
     33       2.00000          -0.196112           -5.33649
     34       2.00000          -0.196109           -5.33640
     35       2.00000          -0.140089           -3.81201
     36       2.00000          -0.140084           -3.81188
     37       2.00000          -0.140079           -3.81173
     38       2.00000          -0.130857           -3.56079
     39       2.00000          -0.130851           -3.56063
     40       2.00000          -0.130843           -3.56041
     41       0.00000          -0.100882           -2.74513
     42       0.00000          -0.045258           -1.23154
     43       0.00000          -0.045254           -1.23143
     44       0.00000          -0.045253           -1.23141
     45       0.00000           0.041996            1.14278
     46       0.00000           0.042000            1.14287
     47       0.00000           0.042001            1.14290
     48       0.00000           0.071852            1.95520
     49       0.00000           0.071856            1.95530
     50       0.00000           0.115724            3.14901
     51       0.00000           0.115725            3.14903
     52       0.00000           0.115727            3.14909
     53       0.00000           0.144552            3.93345
     54       0.00000           0.172832            4.70301
     55       0.00000           0.182675            4.97083
     56       0.00000           0.182675            4.97084
     57       0.00000           0.182677            4.97089
     58       0.00000           0.210492            5.72778
     59       0.00000           0.210496            5.72788
     60       0.00000           0.210497            5.72792
     61       0.00000           0.217706            5.92407
     62       0.00000           0.224849            6.11846
     63       0.00000           0.224854            6.11859
     64       0.00000           0.285302            7.76345

  Highest occupied state (VBM) at     -3.56040767 eV
  | Occupation number:      2.00000000

  Lowest unoccupied state (CBM) at    -2.74513413 eV
  | Occupation number:      0.00000000

  Overall HOMO-LUMO gap:      0.81527355 eV.

  Total energy components:
  | Sum of eigenvalues            :        -591.64800772 Ha      -16099.56142663 eV
  | XC energy correction          :        -100.77686037 Ha       -2742.27789612 eV
  | XC potential correction       :         129.86258963 Ha        3533.74085855 eV
  | Free-atom electrostatic energy:        -524.44319562 Ha      -14270.82544450 eV
  | Hartree energy correction     :         -16.44874877 Ha        -447.59322734 eV
  | Entropy correction            :          -0.00000000 Ha          -0.00000000 eV
  | ---------------------------
  | Total energy                  :       -1103.45422285 Ha      -30026.51713604 eV
  | Total energy, T -> 0          :       -1103.45422285 Ha      -30026.51713604 eV  <-- do not rely on this value for anything but (periodic) metals
  | Electronic free energy        :       -1103.45422285 Ha      -30026.51713604 eV

  Derived energy quantities:
  | Kinetic energy                :        1108.84428489 Ha       30173.18818688 eV
  | Electrostatic energy          :       -2111.52164738 Ha      -57457.42742680 eV
  | Energy correction for multipole
  | error in Hartree potential    :          -0.00118372 Ha          -0.03221055 eV
  | Sum of eigenvalues per atom                           :       -2012.44517833 eV
  | Total energy (T->0) per atom                          :       -3753.31464200 eV  <-- do not rely on this value for anything but (periodic) metals
  | Electronic free energy per atom                       :       -3753.31464200 eV

  Self-consistency convergence accuracy:
  | Change of charge density      : 0.7459E+00
  | Change of sum of eigenvalues  : 0.4475E+03 eV
  | Change of total energy        : 0.1139E+02 eV

  End self-consistency iteration #     1       :  max(cpu_time)    wall_clock(cpu1)
  | Time for this iteration                    :        1.230 s           1.229 s
  | Charge density update                      :        0.490 s           0.490 s
  | Density mixing                             :        0.010 s           0.005 s
  | Hartree multipole update                   :        0.010 s           0.007 s
  | Hartree multipole summation                :        0.250 s           0.246 s
  | Integration                                :        0.480 s           0.473 s
  | Solution of K.-S. eqns.                    :        0.010 s           0.007 s
  | Total energy evaluation                    :        0.000 s           0.000 s
------------------------------------------------------------

------------------------------------------------------------
          Begin self-consistency iteration #    2

  Date     :  20180526, Time     :  162003.023
------------------------------------------------------------
  Evaluating new KS density.
  Integration grid: deviation in total charge (<rho> - N_e) =  -2.842171E-14
  Pulay mixing of updated and previous charge densities.

  Evaluating partitioned Hartree potential by multipole expansion.
  | Analytical far-field extrapolation by fixed multipoles:
  | Hartree multipole sum: apparent total charge =  -0.199374E-05
  Summing up the Hartree potential.
  Time summed over all CPUs for potential: real work        0.724 s, elapsed        0.732 s
  | RMS charge density error from multipole expansion :   0.544763E-02

  Integrating Hamiltonian matrix: batch-based integration.
  Time summed over all CPUs for integration: real work        1.397 s, elapsed        1.420 s

  Updating Kohn-Sham eigenvalues, eigenvectors, occupation numbers, and Fermi level.
  Solving generalized eigenproblem
  Solving real symmetric generalised eigenvalue problem by standard ScaLAPACK.
  Using Cholesky factor for transformation
  Using 1-stage real ELPA solver
  Determining occupation numbers for Kohn-Sham eigenstates.
  | Chemical potential (Fermi level) in eV                 : -.37702993E+01
  | Error in electron count due to remaining E_F inaccuracy: 0.00000000E+00
  | Maximum occupation number of highest empty state:  0.00E+00

  Highest occupied state (VBM) at     -5.91195450 eV
  | Occupation number:      2.00000000

  Lowest unoccupied state (CBM) at    -3.02650667 eV
  | Occupation number:      0.00000000

  Overall HOMO-LUMO gap:      2.88544783 eV.

  Total energy components:
  | Sum of eigenvalues            :        -596.31728074 Ha      -16226.61881024 eV
  | XC energy correction          :        -100.22582865 Ha       -2727.28356020 eV
  | XC potential correction       :         129.14525631 Ha        3514.22122586 eV
  | Free-atom electrostatic energy:        -524.44319562 Ha      -14270.82544450 eV
  | Hartree energy correction     :         -11.42128282 Ha        -310.78891825 eV
  | Entropy correction            :          -0.00000000 Ha          -0.00000000 eV
  | ---------------------------
  | Total energy                  :       -1103.26233152 Ha      -30021.29550733 eV
  | Total energy, T -> 0          :       -1103.26233152 Ha      -30021.29550733 eV  <-- do not rely on this value for anything but (periodic) metals
  | Electronic free energy        :       -1103.26233152 Ha      -30021.29550733 eV

  Derived energy quantities:
  | Kinetic energy                :        1105.54333849 Ha       30083.36486498 eV
  | Electrostatic energy          :       -2108.57984136 Ha      -57377.37681210 eV
  | Energy correction for multipole
  | error in Hartree potential    :          -0.00213244 Ha          -0.05802651 eV
  | Sum of eigenvalues per atom                           :       -2028.32735128 eV
  | Total energy (T->0) per atom                          :       -3752.66193842 eV  <-- do not rely on this value for anything but (periodic) metals
  | Electronic free energy per atom                       :       -3752.66193842 eV

  Self-consistency convergence accuracy:
  | Change of charge density      : 0.7605E+00
  | Change of sum of eigenvalues  : -.1271E+03 eV
  | Change of total energy        : 0.5222E+01 eV

  End self-consistency iteration #     2       :  max(cpu_time)    wall_clock(cpu1)
  | Time for this iteration                    :        1.230 s           1.222 s
  | Charge density update                      :        0.480 s           0.481 s
  | Density mixing                             :        0.010 s           0.007 s
  | Hartree multipole update                   :        0.010 s           0.008 s
  | Hartree multipole summation                :        0.250 s           0.245 s
  | Integration                                :        0.480 s           0.473 s
  | Solution of K.-S. eqns.                    :        0.010 s           0.007 s
  | Total energy evaluation                    :        0.000 s           0.000 s
------------------------------------------------------------

------------------------------------------------------------
          Begin self-consistency iteration #    3

  Date     :  20180526, Time     :  162004.245
------------------------------------------------------------
  Evaluating new KS density.
  Integration grid: deviation in total charge (<rho> - N_e) =   7.105427E-14
  Pulay mixing of updated and previous charge densities.

  Evaluating partitioned Hartree potential by multipole expansion.
  | Analytical far-field extrapolation by fixed multipoles:
  | Hartree multipole sum: apparent total charge =  -0.465145E-05
  Summing up the Hartree potential.
  Time summed over all CPUs for potential: real work        0.723 s, elapsed        0.738 s
  | RMS charge density error from multipole expansion :   0.918222E-02

  Integrating Hamiltonian matrix: batch-based integration.
  Time summed over all CPUs for integration: real work        1.392 s, elapsed        1.408 s

  Updating Kohn-Sham eigenvalues, eigenvectors, occupation numbers, and Fermi level.
  Solving generalized eigenproblem
  Solving real symmetric generalised eigenvalue problem by standard ScaLAPACK.
  Using Cholesky factor for transformation
  Using 1-stage real ELPA solver
  Determining occupation numbers for Kohn-Sham eigenstates.
  | Chemical potential (Fermi level) in eV                 : -.26695510E+01
  | Error in electron count due to remaining E_F inaccuracy: 0.00000000E+00
  | Maximum occupation number of highest empty state:  0.00E+00

  Highest occupied state (VBM) at     -3.42640371 eV
  | Occupation number:      2.00000000

  Lowest unoccupied state (CBM) at    -2.08732138 eV
  | Occupation number:      0.00000000

  Overall HOMO-LUMO gap:      1.33908232 eV.

  Total energy components:
  | Sum of eigenvalues            :        -591.03304900 Ha      -16082.82754861 eV
  | XC energy correction          :        -100.45492218 Ha       -2733.51751240 eV
  | XC potential correction       :         129.45419728 Ha        3522.62793744 eV
  | Free-atom electrostatic energy:        -524.44319562 Ha      -14270.82544450 eV
  | Hartree energy correction     :         -16.80605995 Ha        -457.31615929 eV
  | Entropy correction            :          -0.00000000 Ha          -0.00000000 eV
  | ---------------------------
  | Total energy                  :       -1103.28302947 Ha      -30021.85872736 eV
  | Total energy, T -> 0          :       -1103.28302947 Ha      -30021.85872736 eV  <-- do not rely on this value for anything but (periodic) metals
  | Electronic free energy        :       -1103.28302947 Ha      -30021.85872736 eV

  Derived energy quantities:
  | Kinetic energy                :        1104.02659572 Ha       30042.09219429 eV
  | Electrostatic energy          :       -2106.85470301 Ha      -57330.43340924 eV
  | Energy correction for multipole
  | error in Hartree potential    :          -0.00581279 Ha          -0.15817403 eV
  | Sum of eigenvalues per atom                           :       -2010.35344358 eV
  | Total energy (T->0) per atom                          :       -3752.73234092 eV  <-- do not rely on this value for anything but (periodic) metals
  | Electronic free energy per atom                       :       -3752.73234092 eV

  Self-consistency convergence accuracy:
  | Change of charge density      : 0.1420E+00
  | Change of sum of eigenvalues  : 0.1438E+03 eV
  | Change of total energy        : -.5632E+00 eV

  End self-consistency iteration #     3       :  max(cpu_time)    wall_clock(cpu1)
  | Time for this iteration                    :        1.210 s           1.211 s
  | Charge density update                      :        0.480 s           0.472 s
  | Density mixing                             :        0.010 s           0.008 s
  | Hartree multipole update                   :        0.020 s           0.007 s
  | Hartree multipole summation                :        0.250 s           0.247 s
  | Integration                                :        0.470 s           0.470 s
  | Solution of K.-S. eqns.                    :        0.010 s           0.007 s
  | Total energy evaluation                    :        0.000 s           0.000 s
------------------------------------------------------------

------------------------------------------------------------
          Begin self-consistency iteration #    4

  Date     :  20180526, Time     :  162005.457
------------------------------------------------------------
  Evaluating new KS density.
  Integration grid: deviation in total charge (<rho> - N_e) =   0.000000E+00
  Pulay mixing of updated and previous charge densities.

  Evaluating partitioned Hartree potential by multipole expansion.
  | Analytical far-field extrapolation by fixed multipoles:
  | Hartree multipole sum: apparent total charge =  -0.348831E-05
  Summing up the Hartree potential.
  Time summed over all CPUs for potential: real work        0.713 s, elapsed        0.720 s
  | RMS charge density error from multipole expansion :   0.823651E-02

  Integrating Hamiltonian matrix: batch-based integration.
  Time summed over all CPUs for integration: real work        1.427 s, elapsed        1.471 s

  Updating Kohn-Sham eigenvalues, eigenvectors, occupation numbers, and Fermi level.
  Solving generalized eigenproblem
  Solving real symmetric generalised eigenvalue problem by standard ScaLAPACK.
  Using Cholesky factor for transformation
  Using 1-stage real ELPA solver
  Determining occupation numbers for Kohn-Sham eigenstates.
  | Chemical potential (Fermi level) in eV                 : -.33208245E+01
  | Error in electron count due to remaining E_F inaccuracy: 0.00000000E+00
  | Maximum occupation number of highest empty state:  0.00E+00

  Highest occupied state (VBM) at     -4.98329151 eV
  | Occupation number:      2.00000000

  Lowest unoccupied state (CBM) at    -2.61370159 eV
  | Occupation number:      0.00000000

  Overall HOMO-LUMO gap:      2.36958993 eV.

  Total energy components:
  | Sum of eigenvalues            :        -594.52557078 Ha      -16177.86390155 eV
  | XC energy correction          :        -100.23765689 Ha       -2727.60542291 eV
  | XC potential correction       :         129.16645932 Ha        3514.79818914 eV
  | Free-atom electrostatic energy:        -524.44319562 Ha      -14270.82544450 eV
  | Hartree energy correction     :         -13.20808696 Ha        -359.41033270 eV
  | Entropy correction            :          -0.00000000 Ha          -0.00000000 eV
  | ---------------------------
  | Total energy                  :       -1103.24805092 Ha      -30020.90691252 eV
  | Total energy, T -> 0          :       -1103.24805092 Ha      -30020.90691252 eV  <-- do not rely on this value for anything but (periodic) metals
  | Electronic free energy        :       -1103.24805092 Ha      -30020.90691252 eV

  Derived energy quantities:
  | Kinetic energy                :        1103.80162272 Ha       30035.97036754 eV
  | Electrostatic energy          :       -2106.81201676 Ha      -57329.27185715 eV
  | Energy correction for multipole
  | error in Hartree potential    :          -0.00478399 Ha          -0.13017889 eV
  | Sum of eigenvalues per atom                           :       -2022.23298769 eV
  | Total energy (T->0) per atom                          :       -3752.61336407 eV  <-- do not rely on this value for anything but (periodic) metals
  | Electronic free energy per atom                       :       -3752.61336407 eV

  Self-consistency convergence accuracy:
  | Change of charge density      : 0.2141E+00
  | Change of sum of eigenvalues  : -.9504E+02 eV
  | Change of total energy        : 0.9518E+00 eV

  End self-consistency iteration #     4       :  max(cpu_time)    wall_clock(cpu1)
  | Time for this iteration                    :        1.260 s           1.250 s
  | Charge density update                      :        0.500 s           0.495 s
  | Density mixing                             :        0.010 s           0.009 s
  | Hartree multipole update                   :        0.010 s           0.007 s
  | Hartree multipole summation                :        0.240 s           0.241 s
  | Integration                                :        0.490 s           0.491 s
  | Solution of K.-S. eqns.                    :        0.010 s           0.007 s
  | Total energy evaluation                    :        0.000 s           0.000 s
------------------------------------------------------------

------------------------------------------------------------
          Begin self-consistency iteration #    5

  Date     :  20180526, Time     :  162006.707
------------------------------------------------------------
  Evaluating new KS density.
  Integration grid: deviation in total charge (<rho> - N_e) =   2.842171E-14
  Pulay mixing of updated and previous charge densities.

  Evaluating partitioned Hartree potential by multipole expansion.
  | Analytical far-field extrapolation by fixed multipoles:
  | Hartree multipole sum: apparent total charge =  -0.348687E-05
  Summing up the Hartree potential.
  Time summed over all CPUs for potential: real work        0.716 s, elapsed        0.723 s
  | RMS charge density error from multipole expansion :   0.837237E-02

  Integrating Hamiltonian matrix: batch-based integration.
  Time summed over all CPUs for integration: real work        1.399 s, elapsed        1.404 s

  Updating Kohn-Sham eigenvalues, eigenvectors, occupation numbers, and Fermi level.
  Solving generalized eigenproblem
  Solving real symmetric generalised eigenvalue problem by standard ScaLAPACK.
  Using Cholesky factor for transformation
  Using 1-stage real ELPA solver
  Determining occupation numbers for Kohn-Sham eigenstates.
  | Chemical potential (Fermi level) in eV                 : -.32930251E+01
  | Error in electron count due to remaining E_F inaccuracy: 0.00000000E+00
  | Maximum occupation number of highest empty state:  0.00E+00

  Highest occupied state (VBM) at     -4.91489982 eV
  | Occupation number:      2.00000000

  Lowest unoccupied state (CBM) at    -2.58724641 eV
  | Occupation number:      0.00000000

  Overall HOMO-LUMO gap:      2.32765340 eV.

  Total energy components:
  | Sum of eigenvalues            :        -594.37104663 Ha      -16173.65908538 eV
  | XC energy correction          :        -100.25080397 Ha       -2727.96317334 eV
  | XC potential correction       :         129.18386509 Ha        3515.27182426 eV
  | Free-atom electrostatic energy:        -524.44319562 Ha      -14270.82544450 eV
  | Hartree energy correction     :         -13.36694920 Ha        -363.73319423 eV
  | Entropy correction            :          -0.00000000 Ha          -0.00000000 eV
  | ---------------------------
  | Total energy                  :       -1103.24813033 Ha      -30020.90907319 eV
  | Total energy, T -> 0          :       -1103.24813033 Ha      -30020.90907319 eV  <-- do not rely on this value for anything but (periodic) metals
  | Electronic free energy        :       -1103.24813033 Ha      -30020.90907319 eV

  Derived energy quantities:
  | Kinetic energy                :        1103.87613134 Ha       30037.99785035 eV
  | Electrostatic energy          :       -2106.87345770 Ha      -57330.94375020 eV
  | Energy correction for multipole
  | error in Hartree potential    :          -0.00493048 Ha          -0.13416512 eV
  | Sum of eigenvalues per atom                           :       -2021.70738567 eV
  | Total energy (T->0) per atom                          :       -3752.61363415 eV  <-- do not rely on this value for anything but (periodic) metals
  | Electronic free energy per atom                       :       -3752.61363415 eV

  Self-consistency convergence accuracy:
  | Change of charge density      : 0.8014E-02
  | Change of sum of eigenvalues  : 0.4205E+01 eV
  | Change of total energy        : -.2161E-02 eV

  End self-consistency iteration #     5       :  max(cpu_time)    wall_clock(cpu1)
  | Time for this iteration                    :        1.230 s           1.230 s
  | Charge density update                      :        0.490 s           0.494 s
  | Density mixing                             :        0.010 s           0.010 s
  | Hartree multipole update                   :        0.010 s           0.008 s
  | Hartree multipole summation                :        0.240 s           0.241 s
  | Integration                                :        0.470 s           0.469 s
  | Solution of K.-S. eqns.                    :        0.010 s           0.007 s
  | Total energy evaluation                    :        0.000 s           0.001 s
------------------------------------------------------------

------------------------------------------------------------
          Begin self-consistency iteration #    6

  Date     :  20180526, Time     :  162007.937
------------------------------------------------------------
  Evaluating new KS density.
  Integration grid: deviation in total charge (<rho> - N_e) =   1.421085E-14
  Pulay mixing of updated and previous charge densities.

  Evaluating partitioned Hartree potential by multipole expansion.
  | Analytical far-field extrapolation by fixed multipoles:
  | Hartree multipole sum: apparent total charge =  -0.341182E-05
  Summing up the Hartree potential.
  Time summed over all CPUs for potential: real work        0.731 s, elapsed        0.737 s
  | RMS charge density error from multipole expansion :   0.835829E-02

  Integrating Hamiltonian matrix: batch-based integration.
  Time summed over all CPUs for integration: real work        1.433 s, elapsed        1.447 s

  Updating Kohn-Sham eigenvalues, eigenvectors, occupation numbers, and Fermi level.
  Solving generalized eigenproblem
  Solving real symmetric generalised eigenvalue problem by standard ScaLAPACK.
  Using Cholesky factor for transformation
  Using 1-stage real ELPA solver
  Determining occupation numbers for Kohn-Sham eigenstates.
  | Chemical potential (Fermi level) in eV                 : -.33165646E+01
  | Error in electron count due to remaining E_F inaccuracy: 0.00000000E+00
  | Maximum occupation number of highest empty state:  0.00E+00

  Highest occupied state (VBM) at     -4.98810317 eV
  | Occupation number:      2.00000000

  Lowest unoccupied state (CBM) at    -2.60308617 eV
  | Occupation number:      0.00000000

  Overall HOMO-LUMO gap:      2.38501700 eV.

  Total energy components:
  | Sum of eigenvalues            :        -594.52655770 Ha      -16177.89075714 eV
  | XC energy correction          :        -100.24243156 Ha       -2727.73534835 eV
  | XC potential correction       :         129.17280645 Ha        3514.97090322 eV
  | Free-atom electrostatic energy:        -524.44319562 Ha      -14270.82544450 eV
  | Hartree energy correction     :         -13.20869098 Ha        -359.42676897 eV
  | Entropy correction            :          -0.00000000 Ha          -0.00000000 eV
  | ---------------------------
  | Total energy                  :       -1103.24806941 Ha      -30020.90741573 eV
  | Total energy, T -> 0          :       -1103.24806941 Ha      -30020.90741573 eV  <-- do not rely on this value for anything but (periodic) metals
  | Electronic free energy        :       -1103.24806941 Ha      -30020.90741573 eV

  Derived energy quantities:
  | Kinetic energy                :        1103.89968146 Ha       30038.63868152 eV
  | Electrostatic energy          :       -2106.90531931 Ha      -57331.81074889 eV
  | Energy correction for multipole
  | error in Hartree potential    :          -0.00493771 Ha          -0.13436196 eV
  | Sum of eigenvalues per atom                           :       -2022.23634464 eV
  | Total energy (T->0) per atom                          :       -3752.61342697 eV  <-- do not rely on this value for anything but (periodic) metals
  | Electronic free energy per atom                       :       -3752.61342697 eV

  Self-consistency convergence accuracy:
  | Change of charge density      : 0.8589E-02
  | Change of sum of eigenvalues  : -.4232E+01 eV
  | Change of total energy        : 0.1657E-02 eV

  End self-consistency iteration #     6       :  max(cpu_time)    wall_clock(cpu1)
  | Time for this iteration                    :        1.240 s           1.242 s
  | Charge density update                      :        0.480 s           0.484 s
  | Density mixing                             :        0.020 s           0.013 s
  | Hartree multipole update                   :        0.010 s           0.008 s
  | Hartree multipole summation                :        0.250 s           0.247 s
  | Integration                                :        0.480 s           0.482 s
  | Solution of K.-S. eqns.                    :        0.010 s           0.008 s
  | Total energy evaluation                    :        0.000 s           0.000 s
------------------------------------------------------------

------------------------------------------------------------
          Begin self-consistency iteration #    7

  Date     :  20180526, Time     :  162009.179
------------------------------------------------------------
  Evaluating new KS density.
  Integration grid: deviation in total charge (<rho> - N_e) =   2.842171E-14
  Pulay mixing of updated and previous charge densities.

  Evaluating partitioned Hartree potential by multipole expansion.
  | Analytical far-field extrapolation by fixed multipoles:
  | Hartree multipole sum: apparent total charge =  -0.341213E-05
  Summing up the Hartree potential.
  Time summed over all CPUs for potential: real work        0.729 s, elapsed        0.736 s
  | RMS charge density error from multipole expansion :   0.836333E-02

  Integrating Hamiltonian matrix: batch-based integration.
  Time summed over all CPUs for integration: real work        1.434 s, elapsed        1.464 s

  Updating Kohn-Sham eigenvalues, eigenvectors, occupation numbers, and Fermi level.
  Solving generalized eigenproblem
  Solving real symmetric generalised eigenvalue problem by standard ScaLAPACK.
  Using Cholesky factor for transformation
  Using 1-stage real ELPA solver
  Determining occupation numbers for Kohn-Sham eigenstates.
  | Chemical potential (Fermi level) in eV                 : -.33138356E+01
  | Error in electron count due to remaining E_F inaccuracy: 0.00000000E+00
  | Maximum occupation number of highest empty state:  0.00E+00

  Highest occupied state (VBM) at     -4.98334706 eV
  | Occupation number:      2.00000000

  Lowest unoccupied state (CBM) at    -2.60197464 eV
  | Occupation number:      0.00000000

  Overall HOMO-LUMO gap:      2.38137241 eV.

  Total energy components:
  | Sum of eigenvalues            :        -594.51976038 Ha      -16177.70579253 eV
  | XC energy correction          :        -100.24277282 Ha       -2727.74463460 eV
  | XC potential correction       :         129.17326609 Ha        3514.98341063 eV
  | Free-atom electrostatic energy:        -524.44319562 Ha      -14270.82544450 eV
  | Hartree energy correction     :         -13.21560614 Ha        -359.61494011 eV
  | Entropy correction            :          -0.00000000 Ha          -0.00000000 eV
  | ---------------------------
  | Total energy                  :       -1103.24806888 Ha      -30020.90740110 eV
  | Total energy, T -> 0          :       -1103.24806888 Ha      -30020.90740110 eV  <-- do not rely on this value for anything but (periodic) metals
  | Electronic free energy        :       -1103.24806888 Ha      -30020.90740110 eV

  Derived energy quantities:
  | Kinetic energy                :        1103.89853191 Ha       30038.60740075 eV
  | Electrostatic energy          :       -2106.90382796 Ha      -57331.77016726 eV
  | Energy correction for multipole
  | error in Hartree potential    :          -0.00494322 Ha          -0.13451191 eV
  | Sum of eigenvalues per atom                           :       -2022.21322407 eV
  | Total energy (T->0) per atom                          :       -3752.61342514 eV  <-- do not rely on this value for anything but (periodic) metals
  | Electronic free energy per atom                       :       -3752.61342514 eV

  Self-consistency convergence accuracy:
  | Change of charge density      : 0.1065E-02
  | Change of sum of eigenvalues  : 0.1850E+00 eV
  | Change of total energy        : 0.1462E-04 eV

  End self-consistency iteration #     7       :  max(cpu_time)    wall_clock(cpu1)
  | Time for this iteration                    :        1.250 s           1.249 s
  | Charge density update                      :        0.490 s           0.485 s
  | Density mixing                             :        0.020 s           0.015 s
  | Hartree multipole update                   :        0.010 s           0.007 s
  | Hartree multipole summation                :        0.250 s           0.247 s
  | Integration                                :        0.490 s           0.488 s
  | Solution of K.-S. eqns.                    :        0.010 s           0.007 s
  | Total energy evaluation                    :        0.000 s           0.000 s
------------------------------------------------------------

------------------------------------------------------------
          Begin self-consistency iteration #    8

  Date     :  20180526, Time     :  162010.429
------------------------------------------------------------
  Evaluating new KS density.
  Integration grid: deviation in total charge (<rho> - N_e) =   1.421085E-14
  Pulay mixing of updated and previous charge densities.

  Evaluating partitioned Hartree potential by multipole expansion.
  | Analytical far-field extrapolation by fixed multipoles:
  | Hartree multipole sum: apparent total charge =  -0.341251E-05
  Summing up the Hartree potential.
  Time summed over all CPUs for potential: real work        0.713 s, elapsed        0.720 s
  | RMS charge density error from multipole expansion :   0.836614E-02

  Integrating Hamiltonian matrix: batch-based integration.
  Time summed over all CPUs for integration: real work        1.387 s, elapsed        1.394 s

  Updating Kohn-Sham eigenvalues, eigenvectors, occupation numbers, and Fermi level.
  Solving generalized eigenproblem
  Solving real symmetric generalised eigenvalue problem by standard ScaLAPACK.
  Using Cholesky factor for transformation
  Using 1-stage real ELPA solver
  Determining occupation numbers for Kohn-Sham eigenstates.
  | Chemical potential (Fermi level) in eV                 : -.33139314E+01
  | Error in electron count due to remaining E_F inaccuracy: 0.00000000E+00
  | Maximum occupation number of highest empty state:  0.00E+00

  Highest occupied state (VBM) at     -4.98273252 eV
  | Occupation number:      2.00000000

  Lowest unoccupied state (CBM) at    -2.60131919 eV
  | Occupation number:      0.00000000

  Overall HOMO-LUMO gap:      2.38141334 eV.

  Total energy components:
  | Sum of eigenvalues            :        -594.51566068 Ha      -16177.59423398 eV
  | XC energy correction          :        -100.24298983 Ha       -2727.75053956 eV
  | XC potential correction       :         129.17355758 Ha        3514.99134252 eV
  | Free-atom electrostatic energy:        -524.44319562 Ha      -14270.82544450 eV
  | Hartree energy correction     :         -13.21978015 Ha        -359.72852061 eV
  | Entropy correction            :          -0.00000000 Ha          -0.00000000 eV
  | ---------------------------
  | Total energy                  :       -1103.24806869 Ha      -30020.90739612 eV
  | Total energy, T -> 0          :       -1103.24806869 Ha      -30020.90739612 eV  <-- do not rely on this value for anything but (periodic) metals
  | Electronic free energy        :       -1103.24806869 Ha      -30020.90739612 eV

  Derived energy quantities:
  | Kinetic energy                :        1103.89819468 Ha       30038.59822435 eV
  | Electrostatic energy          :       -2106.90327355 Ha      -57331.75508091 eV
  | Energy correction for multipole
  | error in Hartree potential    :          -0.00494645 Ha          -0.13459987 eV
  | Sum of eigenvalues per atom                           :       -2022.19927925 eV
  | Total energy (T->0) per atom                          :       -3752.61342452 eV  <-- do not rely on this value for anything but (periodic) metals
  | Electronic free energy per atom                       :       -3752.61342452 eV

  Self-consistency convergence accuracy:
  | Change of charge density      : 0.5746E-03
  | Change of sum of eigenvalues  : 0.1116E+00 eV
  | Change of total energy        : 0.4981E-05 eV

  End self-consistency iteration #     8       :  max(cpu_time)    wall_clock(cpu1)
  | Time for this iteration                    :        1.240 s           1.232 s
  | Charge density update                      :        0.500 s           0.497 s
  | Density mixing                             :        0.010 s           0.014 s
  | Hartree multipole update                   :        0.010 s           0.007 s
  | Hartree multipole summation                :        0.240 s           0.240 s
  | Integration                                :        0.470 s           0.465 s
  | Solution of K.-S. eqns.                    :        0.010 s           0.007 s
  | Total energy evaluation                    :        0.000 s           0.001 s
------------------------------------------------------------

------------------------------------------------------------
          Begin self-consistency iteration #    9

  Date     :  20180526, Time     :  162011.661
------------------------------------------------------------
  Evaluating new KS density.
  Integration grid: deviation in total charge (<rho> - N_e) =  -2.842171E-14
  Pulay mixing of updated and previous charge densities.

  Evaluating partitioned Hartree potential by multipole expansion.
  | Analytical far-field extrapolation by fixed multipoles:
  | Hartree multipole sum: apparent total charge =  -0.341224E-05
  Summing up the Hartree potential.
  Time summed over all CPUs for potential: real work        0.713 s, elapsed        0.720 s
  | RMS charge density error from multipole expansion :   0.836676E-02

  Integrating Hamiltonian matrix: batch-based integration.
  Time summed over all CPUs for integration: real work        1.396 s, elapsed        1.412 s

  Updating Kohn-Sham eigenvalues, eigenvectors, occupation numbers, and Fermi level.
  Solving generalized eigenproblem
  Solving real symmetric generalised eigenvalue problem by standard ScaLAPACK.
  Using Cholesky factor for transformation
  Using 1-stage real ELPA solver
  Determining occupation numbers for Kohn-Sham eigenstates.
  | Chemical potential (Fermi level) in eV                 : -.33138880E+01
  | Error in electron count due to remaining E_F inaccuracy: 0.00000000E+00
  | Maximum occupation number of highest empty state:  0.00E+00

  Highest occupied state (VBM) at     -4.98273422 eV
  | Occupation number:      2.00000000

  Lowest unoccupied state (CBM) at    -2.60124548 eV
  | Occupation number:      0.00000000

  Overall HOMO-LUMO gap:      2.38148874 eV.

  Total energy components:
  | Sum of eigenvalues            :        -594.51556114 Ha      -16177.59152532 eV
  | XC energy correction          :        -100.24300784 Ha       -2727.75102965 eV
  | XC potential correction       :         129.17358262 Ha        3514.99202381 eV
  | Free-atom electrostatic energy:        -524.44319562 Ha      -14270.82544450 eV
  | Hartree energy correction     :         -13.21988674 Ha        -359.73142118 eV
  | Entropy correction            :          -0.00000000 Ha          -0.00000000 eV
  | ---------------------------
  | Total energy                  :       -1103.24806872 Ha      -30020.90739683 eV
  | Total energy, T -> 0          :       -1103.24806872 Ha      -30020.90739683 eV  <-- do not rely on this value for anything but (periodic) metals
  | Electronic free energy        :       -1103.24806872 Ha      -30020.90739683 eV

  Derived energy quantities:
  | Kinetic energy                :        1103.89870297 Ha       30038.61205562 eV
  | Electrostatic energy          :       -2106.90376386 Ha      -57331.76842280 eV
  | Energy correction for multipole
  | error in Hartree potential    :          -0.00494761 Ha          -0.13463133 eV
  | Sum of eigenvalues per atom                           :       -2022.19894066 eV
  | Total energy (T->0) per atom                          :       -3752.61342460 eV  <-- do not rely on this value for anything but (periodic) metals
  | Electronic free energy per atom                       :       -3752.61342460 eV

  Self-consistency convergence accuracy:
  | Change of charge density      : 0.5083E-04
  | Change of sum of eigenvalues  : 0.2709E-02 eV
  | Change of total energy        : -.7069E-06 eV

  Electronic self-consistency reached - switching on the force computation.

  End self-consistency iteration #     9       :  max(cpu_time)    wall_clock(cpu1)
  | Time for this iteration                    :        1.230 s           1.231 s
  | Charge density & force component update    :        0.490 s           0.489 s
  | Density mixing                             :        0.020 s           0.015 s
  | Hartree multipole update                   :        0.010 s           0.008 s
  | Hartree multipole summation                :        0.240 s           0.240 s
  | Integration                                :        0.470 s           0.471 s
  | Solution of K.-S. eqns.                    :        0.010 s           0.008 s
  | Total energy evaluation                    :        0.000 s           0.000 s
------------------------------------------------------------

------------------------------------------------------------
          Begin self-consistency iteration #   10

  Date     :  20180526, Time     :  162012.892
------------------------------------------------------------
  Evaluating new KS density and force components.
  Integration grid: deviation in total charge (<rho> - N_e) =   1.421085E-14
  Pulay mixing of updated and previous charge densities.

  Evaluating partitioned Hartree potential by multipole expansion.
  | Analytical far-field extrapolation by fixed multipoles:
  | Hartree multipole sum: apparent total charge =  -0.341240E-05
  Summing up the Hartree potential.
  Time summed over all CPUs for potential: real work        2.059 s, elapsed        2.076 s
  | RMS charge density error from multipole expansion :   0.836667E-02

  Integrating Hamiltonian matrix: batch-based integration.
  Time summed over all CPUs for integration: real work        1.387 s, elapsed        1.394 s

  Updating Kohn-Sham eigenvalues, eigenvectors, occupation numbers, and Fermi level.
  Solving generalized eigenproblem
  Solving real symmetric generalised eigenvalue problem by standard ScaLAPACK.
  Using Cholesky factor for transformation
  Using 1-stage real ELPA solver
  Determining occupation numbers for Kohn-Sham eigenstates.
  | Chemical potential (Fermi level) in eV                 : -.33139025E+01
  | Error in electron count due to remaining E_F inaccuracy: 0.00000000E+00
  | Maximum occupation number of highest empty state:  0.00E+00

  Highest occupied state (VBM) at     -4.98275270 eV
  | Occupation number:      2.00000000

  Lowest unoccupied state (CBM) at    -2.60125962 eV
  | Occupation number:      0.00000000

  Overall HOMO-LUMO gap:      2.38149308 eV.

  Total energy components:
  | Sum of eigenvalues            :        -594.51554831 Ha      -16177.59117620 eV
  | XC energy correction          :        -100.24301579 Ha       -2727.75124614 eV
  | XC potential correction       :         129.17359296 Ha        3514.99230516 eV
  | Free-atom electrostatic energy:        -524.44319562 Ha      -14270.82544450 eV
  | Hartree energy correction     :         -13.21990195 Ha        -359.73183498 eV
  | Entropy correction            :          -0.00000000 Ha          -0.00000000 eV
  | ---------------------------
  | Total energy                  :       -1103.24806871 Ha      -30020.90739665 eV
  | Total energy, T -> 0          :       -1103.24806871 Ha      -30020.90739665 eV  <-- do not rely on this value for anything but (periodic) metals
  | Electronic free energy        :       -1103.24806871 Ha      -30020.90739665 eV

  Derived energy quantities:
  | Kinetic energy                :        1103.89879678 Ha       30038.61460817 eV
  | Electrostatic energy          :       -2106.90384970 Ha      -57331.77075868 eV
  | Energy correction for multipole
  | error in Hartree potential    :          -0.00494758 Ha          -0.13463038 eV
  | Sum of eigenvalues per atom                           :       -2022.19889702 eV
  | Total energy (T->0) per atom                          :       -3752.61342458 eV  <-- do not rely on this value for anything but (periodic) metals
  | Electronic free energy per atom                       :       -3752.61342458 eV

  atomic forces [eV/Ang]:
  -----------------------
  atom #    1
   Hellmann-Feynman              : 0.264154E+02 -.570846E+01 0.182173E+02
   Multipole                     : 0.245088E+00 -.529377E-01 0.169051E+00
   Pulay + GGA                   : -.269860E+02 0.583205E+01 -.186125E+02
   ----------------------------------------------------------------
   Total forces(   1)            : -.325476E+00 0.706530E-01 -.226087E+00
  atom #    2
   Hellmann-Feynman              : 0.188830E+01 0.519406E+01 -.596187E+01
   Multipole                     : 0.289407E-01 0.792428E-01 -.910180E-01
   Pulay + GGA                   : -.183779E+01 -.505450E+01 0.580122E+01
   ----------------------------------------------------------------
   Total forces(   2)            : 0.794562E-01 0.218805E+00 -.251665E+00
  atom #    3
   Hellmann-Feynman              : -.105413E+02 -.279988E+02 -.129256E+02
   Multipole                     : -.977960E-01 -.259876E+00 -.119816E+00
   Pulay + GGA                   : 0.107691E+02 0.286049E+02 0.132060E+02
   ----------------------------------------------------------------
   Total forces(   3)            : 0.130039E+00 0.346223E+00 0.160612E+00
  atom #    4
   Hellmann-Feynman              : -.584867E+01 0.321420E+01 0.464211E+01
   Multipole                     : -.893796E-01 0.490454E-01 0.708664E-01
   Pulay + GGA                   : 0.569221E+01 -.312754E+01 -.451687E+01
   ----------------------------------------------------------------
   Total forces(   4)            : -.245839E+00 0.135708E+00 0.196101E+00
  atom #    5
   Hellmann-Feynman              : 0.658918E+01 -.142392E+01 0.454386E+01
   Multipole                     : 0.100613E+00 -.216863E-01 0.692775E-01
   Pulay + GGA                   : -.641178E+01 0.138582E+01 -.442158E+01
   ----------------------------------------------------------------
   Total forces(   5)            : 0.278015E+00 -.597855E-01 0.191567E+00
  atom #    6
   Hellmann-Feynman              : -.262946E+01 -.698459E+01 -.322413E+01
   Multipole                     : -.400584E-01 -.106493E+00 -.491047E-01
   Pulay + GGA                   : 0.255906E+01 0.679683E+01 0.313742E+01
   ----------------------------------------------------------------
   Total forces(   6)            : -.110462E+00 -.294254E+00 -.135820E+00
  atom #    7
   Hellmann-Feynman              : 0.757464E+01 0.208246E+02 -.238988E+02
   Multipole                     : 0.701586E-01 0.193233E+00 -.221751E+00
   Pulay + GGA                   : -.773830E+01 -.212752E+02 0.244159E+02
   ----------------------------------------------------------------
   Total forces(   7)            : -.935029E-01 -.257268E+00 0.295433E+00
  atom #    8
   Hellmann-Feynman              : -.234486E+02 0.128826E+02 0.186076E+02
   Multipole                     : -.217413E+00 0.119496E+00 0.172648E+00
   Pulay + GGA                   : 0.239566E+02 -.131612E+02 -.190102E+02
   ----------------------------------------------------------------
   Total forces(   8)            : 0.290600E+00 -.159128E+00 -.230003E+00

  Self-consistency convergence accuracy:
  | Change of charge density      : 0.1008E-04
  | Change of sum of eigenvalues  : 0.3491E-03 eV
  | Change of total energy        : 0.1813E-06 eV
  | Change of forces              : 0.2398E+02 eV/A

  Writing Kohn-Sham eigenvalues.

  State    Occupation    Eigenvalue [Ha]    Eigenvalue [eV]
      1       2.00000         -46.310633        -1260.17644
      2       2.00000         -46.310626        -1260.17626
      3       2.00000         -46.310626        -1260.17626
      4       2.00000         -46.310624        -1260.17621
      5       2.00000         -18.685853         -508.46793
      6       2.00000         -18.685851         -508.46787
      7       2.00000         -18.685847         -508.46776
      8       2.00000         -18.685845         -508.46771
      9       2.00000          -2.895840          -78.79980
     10       2.00000          -2.895315          -78.78554
     11       2.00000          -2.895311          -78.78542
     12       2.00000          -2.895309          -78.78537
     13       2.00000          -1.679456          -45.70032
     14       2.00000          -1.675843          -45.60201
     15       2.00000          -1.675839          -45.60191
     16       2.00000          -1.675838          -45.60187
     17       2.00000          -1.671504          -45.48394
     18       2.00000          -1.671503          -45.48392
     19       2.00000          -1.671352          -45.47980
     20       2.00000          -1.671351          -45.47978
     21       2.00000          -1.671349          -45.47973
     22       2.00000          -1.670110          -45.44599
     23       2.00000          -1.670109          -45.44597
     24       2.00000          -1.670107          -45.44591
     25       2.00000          -0.760992          -20.70766
     26       2.00000          -0.737221          -20.06081
     27       2.00000          -0.737216          -20.06066
     28       2.00000          -0.737209          -20.06049
     29       2.00000          -0.266721           -7.25786
     30       2.00000          -0.252516           -6.87130
     31       2.00000          -0.252514           -6.87125
     32       2.00000          -0.252513           -6.87123
     33       2.00000          -0.239056           -6.50506
     34       2.00000          -0.239054           -6.50499
     35       2.00000          -0.197125           -5.36405
     36       2.00000          -0.197121           -5.36394
     37       2.00000          -0.197117           -5.36382
     38       2.00000          -0.183124           -4.98306
     39       2.00000          -0.183119           -4.98293
     40       2.00000          -0.183113           -4.98275
     41       0.00000          -0.095595           -2.60126
     42       0.00000          -0.050422           -1.37205
     43       0.00000          -0.050418           -1.37195
     44       0.00000          -0.050417           -1.37190
     45       0.00000           0.044739            1.21742
     46       0.00000           0.044742            1.21750
     47       0.00000           0.044743            1.21752
     48       0.00000           0.065343            1.77808
     49       0.00000           0.065347            1.77817
     50       0.00000           0.118127            3.21441
     51       0.00000           0.118129            3.21445
     52       0.00000           0.118130            3.21449
     53       0.00000           0.146348            3.98234
     54       0.00000           0.175348            4.77146
     55       0.00000           0.183475            4.99260
     56       0.00000           0.183475            4.99261
     57       0.00000           0.183476            4.99264
     58       0.00000           0.199986            5.44191
     59       0.00000           0.199990            5.44201
     60       0.00000           0.199991            5.44203
     61       0.00000           0.200853            5.46549
     62       0.00000           0.230105            6.26149
     63       0.00000           0.230110            6.26161
     64       0.00000           0.280202            7.62469

  Highest occupied state (VBM) at     -4.98275270 eV
  | Occupation number:      2.00000000

  Lowest unoccupied state (CBM) at    -2.60125962 eV
  | Occupation number:      0.00000000

  Overall HOMO-LUMO gap:      2.38149308 eV.

  Self-consistency cycle converged.

  End self-consistency iteration #    10       :  max(cpu_time)    wall_clock(cpu1)
  | Time for this iteration                    :        3.530 s           3.533 s
  | Charge density & force component update    :        2.340 s           2.340 s
  | Density mixing                             :        0.020 s           0.018 s
  | Hartree multipole update                   :        0.010 s           0.008 s
  | Hartree multipole summation                :        0.700 s           0.693 s
  | Integration                                :        0.470 s           0.465 s
  | Solution of K.-S. eqns.                    :        0.010 s           0.007 s
  | Total energy evaluation                    :        0.000 s           0.000 s
------------------------------------------------------------
  Removing unitary transformations (pure translations, rotations) from forces on atoms.
  Atomic forces before filtering:
  | Net force on center of mass :  0.282970E-02 0.953539E-03 0.137238E-03 eV/A
  | Net torque on center of mass:  0.558527E-04 -.167584E-02 0.926768E-03 eV
  Atomic forces after filtering:
  | Net force on center of mass :  0.000000E+00 0.446015E-16 -.892031E-16 eV/A
  | Net torque on center of mass:  0.118011E-15 -.944085E-16 0.236021E-16 eV

  Energy and forces in a compact form:
  | Total energy uncorrected      :         -0.300209073966499E+05 eV
  | Total energy corrected        :         -0.300209073966499E+05 eV  <-- do not rely on this value for anything but (periodic) metals
  | Electronic free energy        :         -0.300209073966499E+05 eV
  Total atomic forces (unitary forces cleaned) [eV/Ang]:
  |   1         -0.325911291241912E+00          0.706094512236830E-01         -0.225962965800212E+00
  |   2          0.790282183005179E-01          0.218656323183621E+00         -0.251731296322488E+00
  |   3          0.129839054996469E+00          0.346074493254128E+00          0.160532614140745E+00
  |   4         -0.246038393829759E+00          0.135669912212199E+00          0.196221753630732E+00
  |   5          0.277751761899921E+00         -0.599886850747211E-01          0.191392491106551E+00
  |   6         -0.110986467307974E+00         -0.294341237936926E+00         -0.135768587786952E+00
  |   7         -0.937897332915426E-01         -0.257360166680410E+00          0.295460292521504E+00
  |   8          0.290106850474280E+00         -0.159320090181574E+00         -0.230144301489881E+00

  ------------------------------------ 
  Start decomposition of the XC Energy 
  ------------------------------------ 
  Hartree-Fock part   :          0.000000000 Ha              0.000000000 eV
  ------------------------------------ 
  X Energy            :        -97.409985369 Ha          -2650.660566009 eV
  C Energy GGA        :         -2.833030423 Ha            -77.090680127 eV
  Total XC Energy     :       -100.243015791 Ha          -2727.751246136 eV
  LDA X and C from self-consistent density 
  X Energy LDA        :        -89.267799517 Ha          -2429.100416127 eV
  C Energy LDA        :         -5.884079756 Ha           -160.113956673 eV
  ------------------------------------ 
  End decomposition of the XC Energy 
  ------------------------------------ 

------------------------------------------------------------------------------
  Final output of selected total energy values:

  The following output summarizes some interesting total energy values
  at the end of a run (AFTER all relaxation, molecular dynamics, etc.).

  | Total energy of the DFT / Hartree-Fock s.c.f. calculation      :         -30020.907396650 eV
  | Final zero-broadening corrected energy (caution - metals only) :         -30020.907396650 eV
  | For reference only, the value of 1 Hartree used in FHI-aims is :             27.211384500 eV

  Before relying on these values, please be sure to understand exactly which
  total energy value is referred to by a given number. Different objects may
  all carry the same name 'total energy'. Definitions:

  Total energy of the DFT / Hartree-Fock s.c.f. calculation:
  | Note that this energy does not include ANY quantities calculated after the
  | s.c.f. cycle, in particular not ANY RPA, MP2, etc. many-body perturbation terms.

  Final zero-broadening corrected energy:
  | For metallic systems only, a broadening of the occupation numbers at the Fermi
  | level can be extrapolated back to zero broadening by an electron-gas inspired
  | formula. For all systems that are not real metals, this value can be
  | meaningless and should be avoided.

------------------------------------------------------------------------------

------------------------------------------------------------
          Leaving FHI-aims.
          Date     :  20180526, Time     :  162016.473

          Computational steps:
          | Number of self-consistency cycles          :           10

          Detailed time accounting                     :  max(cpu_time)    wall_clock(cpu1)
          | Total time                                 :       16.130 s          16.134 s
          | Preparation time                           :        0.220 s           0.235 s
          | Grid partitioning                          :        0.250 s           0.253 s
          | Preloading free-atom quantities on grid    :        0.020 s           0.016 s
          | Free-atom superposition energy             :        0.050 s           0.052 s
          | Total time for integrations                :        5.510 s           5.480 s
          | Total time for solution of K.-S. equations :        0.120 s           0.089 s
          | Total time for density & force components  :        6.740 s           6.727 s
          | Total time for mixing                      :        0.140 s           0.114 s
          | Total time for Hartree multipole update    :        0.110 s           0.075 s
          | Total time for Hartree multipole sum       :        2.910 s           2.887 s
          | Total time for total energy evaluation     :        0.000 s           0.002 s
          | Total time for scaled ZORA corrections     :        0.000 s           0.000 s

          Have a nice day.
------------------------------------------------------------
