ITEM: TIMESTEP
0
ITEM: NUMBER OF ATOMS
12
ITEM: BOX BOUNDS xy xz yz pp pp pp
0.0000000000000000e+00 1.1113819869529157e+01 5.6691783835513254e-01
0.0000000000000000e+00 1.0735874643959070e+01 1.8897261278504421e-01
0.0000000000000000e+00 1.0357929418388981e+01 3.7794522557008842e-01
ITEM: ATOMS id type element x y z
1 1 Ca 6.66829 6.44152 6.21476
2 1 Ca 6.29035 1.07359 1.03579
3 1 Ca 1.39484 6.25255 1.03579
4 1 Ca 1.20587 1.26256 6.21476
5 2 F 3.88984 3.75756 3.62528
6 2 F 9.44675 9.12549 8.80424
7 2 F 9.35226 8.93652 3.62528
8 2 F 3.98432 3.94653 8.80424
9 2 F 9.16329 3.94653 8.80424
10 2 F 4.1733 8.93652 3.62528
11 2 F 4.26778 9.12549 8.80424
12 2 F 9.0688 3.75756 3.62528
ITEM: TIMESTEP
1
ITEM: NUMBER OF ATOMS
12
ITEM: BOX BOUNDS xy xz yz pp pp pp
0.0000000000000000e+00 1.1113819869529157e+01 5.6691783835513254e-01
0.0000000000000000e+00 1.0735874643959070e+01 1.8897261278504421e-01
0.0000000000000000e+00 1.0357929418388981e+01 3.7794522557008842e-01
ITEM: ATOMS id type element x y z
1 1 Ca 6.66285 6.44534 6.22105
2 1 Ca 6.28549 1.06548 1.03153
3 1 Ca 1.40017 6.25255 1.03959
4 1 Ca 1.20873 1.26054 6.2103
5 2 F 3.88594 3.76228 3.63444
6 2 F 9.43922 9.12219 8.79631
7 2 F 9.34901 8.9287 3.63311
8 2 F 3.97728 3.95486 8.79925
9 2 F 9.16991 3.95453 8.80263
10 2 F 4.17692 8.93592 3.61839
11 2 F 4.2747 9.12274 8.81224
12 2 F 9.07782 3.76426 3.61881
ITEM: TIMESTEP
2
ITEM: NUMBER OF ATOMS
12
ITEM: BOX BOUNDS xy xz yz pp pp pp
0.0000000000000000e+00 1.1113819869529157e+01 5.6691783835513254e-01
0.0000000000000000e+00 1.0735874643959070e+01 1.8897261278504421e-01
0.0000000000000000e+00 1.0357929418388981e+01 3.7794522557008842e-01
ITEM: ATOMS id type element x y z
1 1 Ca 6.65743 6.44915 6.22733
2 1 Ca 6.28065 1.0574 1.02726
3 1 Ca 1.40547 6.25255 1.04338
4 1 Ca 1.21157 1.25854 6.20584
5 2 F 3.88209 3.76695 3.64361
6 2 F 9.43172 9.11894 8.78839
7 2 F 9.34578 8.92091 3.64095
8 2 F 3.97026 3.96318 8.79426
9 2 F 9.17651 3.96246 8.80106
10 2 F 4.18051 8.93537 3.61151
11 2 F 4.28159 9.11999 8.82024
12 2 F 9.08679 3.77096 3.61234
ITEM: TIMESTEP
3
ITEM: NUMBER OF ATOMS
12
ITEM: BOX BOUNDS xy xz yz pp pp pp
0.0000000000000000e+00 1.1113819869529157e+01 5.6691783835513254e-01
0.0000000000000000e+00 1.0735874643959070e+01 1.8897261278504421e-01
0.0000000000000000e+00 1.0357929418388981e+01 3.7794522557008842e-01
ITEM: ATOMS id type element x y z
1 1 Ca 6.65205 6.45293 6.23359
2 1 Ca 6.27583 1.04934 1.023
3 1 Ca 1.41074 6.25254 1.04716
4 1 Ca 1.21439 1.25656 6.20139
5 2 F 3.87831 3.77152 3.65274
6 2 F 9.42427 9.1158 8.7805
7 2 F 9.34259 8.91317 3.64874
8 2 F 3.96329 3.97144 8.78931
9 2 F 9.18305 3.97027 8.79952
10 2 F 4.18405 8.93489 3.60464
11 2 F 4.28844 9.11729 8.82823
12 2 F 9.09568 3.77758 3.60585
ITEM: TIMESTEP
4
ITEM: NUMBER OF ATOMS
12
ITEM: BOX BOUNDS xy xz yz pp pp pp
0.0000000000000000e+00 1.1113819869529157e+01 5.6691783835513254e-01
0.0000000000000000e+00 1.0735874643959070e+01 1.8897261278504421e-01
0.0000000000000000e+00 1.0357929418388981e+01 3.7794522557008842e-01
ITEM: ATOMS id type element x y z
1 1 Ca 6.64673 6.45669 6.23982
2 1 Ca 6.27105 1.04132 1.01875
3 1 Ca 1.41596 6.25252 1.05094
4 1 Ca 1.21717 1.25463 6.19695
5 2 F 3.87463 3.77597 3.66181
6 2 F 9.4169 9.11278 8.7727
7 2 F 9.33945 8.90555 3.65645
8 2 F 3.95642 3.97959 8.78442
9 2 F 9.1895 3.97791 8.79801
10 2 F 4.18754 8.93451 3.59782
11 2 F 4.29521 9.11468 8.83616
12 2 F 9.10447 3.7841 3.59937
ITEM: TIMESTEP
5
ITEM: NUMBER OF ATOMS
12
ITEM: BOX BOUNDS xy xz yz pp pp pp
0.0000000000000000e+00 1.1113819869529157e+01 5.6691783835513254e-01
0.0000000000000000e+00 1.0735874643959070e+01 1.8897261278504421e-01
0.0000000000000000e+00 1.0357929418388981e+01 3.7794522557008842e-01
ITEM: ATOMS id type element x y z
1 1 Ca 6.6415 6.4604 6.24602
2 1 Ca 6.26631 1.03336 1.01451
3 1 Ca 1.4211 6.25248 1.0547
4 1 Ca 1.2199 1.25275 6.19253
5 2 F 3.87109 3.78026 3.67078
6 2 F 9.40965 9.10993 8.765
7 2 F 9.33638 8.89809 3.66404
8 2 F 3.94968 3.98761 8.77964
9 2 F 9.19583 3.98534 8.79653
10 2 F 4.19094 8.93423 3.59107
11 2 F 4.30186 9.11217 8.84403
12 2 F 9.11312 3.79046 3.59291
ITEM: TIMESTEP
6
ITEM: NUMBER OF ATOMS
12
ITEM: BOX BOUNDS xy xz yz pp pp pp
0.0000000000000000e+00 1.1113819869529157e+01 5.6691783835513254e-01
0.0000000000000000e+00 1.0735874643959070e+01 1.8897261278504421e-01
0.0000000000000000e+00 1.0357929418388981e+01 3.7794522557008842e-01
ITEM: ATOMS id type element x y z
1 1 Ca 6.63636 6.46406 6.25217
2 1 Ca 6.26164 1.02547 1.01029
3 1 Ca 1.42616 6.25242 1.05845
4 1 Ca 1.22257 1.25093 6.18812
5 2 F 3.86771 3.78438 3.67963
6 2 F 9.40255 9.10728 8.75744
7 2 F 9.33339 8.89083 3.67148
8 2 F 3.9431 3.99544 8.77498
9 2 F 9.20199 3.99252 8.79509
10 2 F 4.19424 8.93408 3.58442
11 2 F 4.30838 9.10982 8.85179
12 2 F 9.12159 3.79663 3.58649
ITEM: TIMESTEP
7
ITEM: NUMBER OF ATOMS
12
ITEM: BOX BOUNDS xy xz yz pp pp pp
0.0000000000000000e+00 1.1113819869529157e+01 5.6691783835513254e-01
0.0000000000000000e+00 1.0735874643959070e+01 1.8897261278504421e-01
0.0000000000000000e+00 1.0357929418388981e+01 3.7794522557008842e-01
ITEM: ATOMS id type element x y z
1 1 Ca 6.63135 6.46766 6.25827
2 1 Ca 6.25704 1.01766 1.00608
3 1 Ca 1.4311 6.25235 1.06219
4 1 Ca 1.22516 1.2492 6.18374
5 2 F 3.86453 3.78829 3.68831
6 2 F 9.39562 9.10485 8.75006
7 2 F 9.33049 8.88381 3.67873
8 2 F 3.93671 4.00305 8.77049
9 2 F 9.20796 3.99941 8.79367
10 2 F 4.19743 8.93408 3.5779
11 2 F 4.31472 9.10765 8.85942
12 2 F 9.12987 3.80255 3.58011
ITEM: TIMESTEP
8
ITEM: NUMBER OF ATOMS
12
ITEM: BOX BOUNDS xy xz yz pp pp pp
0.0000000000000000e+00 1.1113819869529157e+01 5.6691783835513254e-01
0.0000000000000000e+00 1.0735874643959070e+01 1.8897261278504421e-01
0.0000000000000000e+00 1.0357929418388981e+01 3.7794522557008842e-01
ITEM: ATOMS id type element x y z
1 1 Ca 6.62647 6.47118 6.2643
2 1 Ca 6.25253 1.00994 1.00189
3 1 Ca 1.43593 6.25224 1.0659
4 1 Ca 1.22766 1.24756 6.17938
5 2 F 3.86156 3.79196 3.69681
6 2 F 9.38889 9.10268 8.74289
7 2 F 9.32769 8.87707 3.68576
8 2 F 3.93055 4.01041 8.76619
9 2 F 9.21372 4.00597 8.79228
10 2 F 4.20049 8.93423 3.57154
11 2 F 4.32086 9.10568 8.86691
12 2 F 9.13792 3.80819 3.57379
ITEM: TIMESTEP
9
ITEM: NUMBER OF ATOMS
12
ITEM: BOX BOUNDS xy xz yz pp pp pp
0.0000000000000000e+00 1.1113819869529157e+01 5.6691783835513254e-01
0.0000000000000000e+00 1.0735874643959070e+01 1.8897261278504421e-01
0.0000000000000000e+00 1.0357929418388981e+01 3.7794522557008842e-01
ITEM: ATOMS id type element x y z
1 1 Ca 6.62175 6.47463 6.27027
2 1 Ca 6.24812 1.00233 0.997725
3 1 Ca 1.44062 6.25211 1.06959
4 1 Ca 1.23006 1.24602 6.17506
5 2 F 3.85884 3.79539 3.7051
6 2 F 9.38239 9.10081 8.73596
7 2 F 9.32501 8.87065 3.69253
8 2 F 3.92463 4.01747 8.76212
9 2 F 9.21922 4.01217 8.79092
10 2 F 4.20339 8.93456 3.56535
11 2 F 4.32677 9.10396 8.87421
12 2 F 9.14572 3.8135 3.56754
ITEM: TIMESTEP
10
ITEM: NUMBER OF ATOMS
12
ITEM: BOX BOUNDS xy xz yz pp pp pp
0.0000000000000000e+00 1.1113819869529157e+01 5.6691783835513254e-01
0.0000000000000000e+00 1.0735874643959070e+01 1.8897261278504421e-01
0.0000000000000000e+00 1.0357929418388981e+01 3.7794522557008842e-01
ITEM: ATOMS id type element x y z
1 1 Ca 6.61721 6.47798 6.27615
2 1 Ca 6.24382 0.99484 0.993584
3 1 Ca 1.44516 6.25194 1.07325
4 1 Ca 1.23235 1.2446 6.17076
5 2 F 3.85639 3.79854 3.71314
6 2 F 9.37615 9.09925 8.72929
7 2 F 9.32246 8.8646 3.69902
8 2 F 3.919 4.0242 8.75829
9 2 F 9.22445 4.01797 8.78958
10 2 F 4.20614 8.93508 3.55937
11 2 F 4.33242 9.1025 8.88132
12 2 F 9.15324 3.81846 3.56137
